 running on   40 nodes
 distr:  one band on    1 nodes,   40 groups
 md.x 0.99
 POSCAR found :  1 types and     8788 ions
Rc and Rl:   5.500000  7.500000
 TIPO = eam     
 TIPO1 = uknown p
 Using EAM

 EAM parameters: 
 C  =   4.0539  EPS  = 0.0057  A  = 4.3418  M  = 6.782  N  =  7.748  R1 =   5.500000


 ----------------------------------------------------------------------------- 
|                                                                             |
|           W    W    AA    RRRRR   N    N  II  N    N   GGGG   !!!           |
|           W    W   A  A   R    R  NN   N  II  NN   N  G    G  !!!           |
|           W    W  A    A  R    R  N N  N  II  N N  N  G       !!!           |
|           W WW W  AAAAAA  RRRRR   N  N N  II  N  N N  G  GGG   !            |
|           WW  WW  A    A  R   R   N   NN  II  N   NN  G    G                |
|           W    W  A    A  R    R  N    N  II  N    N   GGGG   !!!           |
|                                                                             |
|      VASP found  26361 degrees of freedom                                   |
|      the temperature will equal 2*E(kin)/ (degrees of freedom)              |
|      this differs from previous releases, where T was 2*E(kin)/(3 NIONS).   |
|      The new definition is more consistent                                  |
|                                                                             |
 ----------------------------------------------------------------------------- 

 Random init:        9564       17135
 Random init:        9564       17135
 Random init:        9564       17135
 Random init:        9564       17135
 Random init:        9564       17135
 Random init:        9564       17135
 Random init:        9564       17135
 Random init:        9564       17135
 Random init:        9564       17135
 Random init:        9564       17135
 Random init:        9564       17135
 Random init:        9564       17135
 Random init:        9564       17135
 Random init:        9564       17135
 Random init:        9564       17135
 Random init:        9564       17135
 Random init:        9564       17135
 Random init:        9564       17135
 Random init:        9564       17135
 Random init:        9564       17135
 Random init:        9564       17135
 Random init:        9564       17135
 Random init:        9564       17135
 Random init:        9564       17135
 Random init:        9564       17135
 Random init:        9564       17135
 Random init:        9564       17135
 Random init:        9564       17135
 Random init:        9564       17135
 Random init:        9564       17135
 Random init:        9564       17135
 Random init:        9564       17135
 Random init:        9564       17135
 Random init:        9564       17135
 Random init:        9564       17135
 Random init:        9564       17135
 Random init:        9564       17135
 Random init:        9564       17135
 Random init:        9564       17135
 Random init:        9564       17135
 alloco spazio per displ
       10 T=  5429. E= 0.11074918E+05 F= 0.49080209E+04 EK= 0.61669E+04 SP= 0.00E+00 SK= 0.00E+00
       20 T=  4345. E= 0.11075815E+05 F= 0.61401530E+04 EK= 0.49357E+04 SP= 0.00E+00 SK= 0.00E+00
       30 T=  4107. E= 0.11075399E+05 F= 0.64108211E+04 EK= 0.46646E+04 SP= 0.00E+00 SK= 0.00E+00
       40 T=  4153. E= 0.11075269E+05 F= 0.63576870E+04 EK= 0.47176E+04 SP= 0.00E+00 SK= 0.00E+00
       50 T=  4188. E= 0.11075267E+05 F= 0.63185026E+04 EK= 0.47568E+04 SP= 0.00E+00 SK= 0.00E+00
       60 T=  4247. E= 0.11075282E+05 F= 0.62509929E+04 EK= 0.48243E+04 SP= 0.00E+00 SK= 0.00E+00
       70 T=  4248. E= 0.11075346E+05 F= 0.62502538E+04 EK= 0.48251E+04 SP= 0.00E+00 SK= 0.00E+00
       80 T=  4248. E= 0.11075234E+05 F= 0.62502110E+04 EK= 0.48250E+04 SP= 0.00E+00 SK= 0.00E+00
       90 T=  4257. E= 0.11075256E+05 F= 0.62402179E+04 EK= 0.48350E+04 SP= 0.00E+00 SK= 0.00E+00
      100 T=  4226. E= 0.11075310E+05 F= 0.62748803E+04 EK= 0.48004E+04 SP= 0.00E+00 SK= 0.00E+00
      110 T=  4201. E= 0.11075258E+05 F= 0.63036965E+04 EK= 0.47716E+04 SP= 0.00E+00 SK= 0.00E+00
      120 T=  4210. E= 0.11075232E+05 F= 0.62937967E+04 EK= 0.47814E+04 SP= 0.00E+00 SK= 0.00E+00
      130 T=  4229. E= 0.11075269E+05 F= 0.62718007E+04 EK= 0.48035E+04 SP= 0.00E+00 SK= 0.00E+00
      140 T=  4239. E= 0.11075245E+05 F= 0.62608305E+04 EK= 0.48144E+04 SP= 0.00E+00 SK= 0.00E+00
      150 T=  4205. E= 0.11075215E+05 F= 0.62986435E+04 EK= 0.47766E+04 SP= 0.00E+00 SK= 0.00E+00
      160 T=  4196. E= 0.11075163E+05 F= 0.63096827E+04 EK= 0.47655E+04 SP= 0.00E+00 SK= 0.00E+00
      170 T=  4231. E= 0.11075231E+05 F= 0.62695140E+04 EK= 0.48057E+04 SP= 0.00E+00 SK= 0.00E+00
      180 T=  4260. E= 0.11075184E+05 F= 0.62371418E+04 EK= 0.48380E+04 SP= 0.00E+00 SK= 0.00E+00
      190 T=  4251. E= 0.11075285E+05 F= 0.62473721E+04 EK= 0.48279E+04 SP= 0.00E+00 SK= 0.00E+00
      200 T=  4234. E= 0.11075208E+05 F= 0.62659522E+04 EK= 0.48093E+04 SP= 0.00E+00 SK= 0.00E+00
      210 T=  4198. E= 0.11075366E+05 F= 0.63069407E+04 EK= 0.47684E+04 SP= 0.00E+00 SK= 0.00E+00
      220 T=  4233. E= 0.11075211E+05 F= 0.62677080E+04 EK= 0.48075E+04 SP= 0.00E+00 SK= 0.00E+00
      230 T=  4229. E= 0.11075323E+05 F= 0.62723483E+04 EK= 0.48030E+04 SP= 0.00E+00 SK= 0.00E+00
      240 T=  4240. E= 0.11075264E+05 F= 0.62597498E+04 EK= 0.48155E+04 SP= 0.00E+00 SK= 0.00E+00
      250 T=  4220. E= 0.11075263E+05 F= 0.62825868E+04 EK= 0.47927E+04 SP= 0.00E+00 SK= 0.00E+00
      260 T=  4198. E= 0.11075224E+05 F= 0.63066737E+04 EK= 0.47685E+04 SP= 0.00E+00 SK= 0.00E+00
      270 T=  4217. E= 0.11075205E+05 F= 0.62859615E+04 EK= 0.47892E+04 SP= 0.00E+00 SK= 0.00E+00
      280 T=  4200. E= 0.11075204E+05 F= 0.63043002E+04 EK= 0.47709E+04 SP= 0.00E+00 SK= 0.00E+00
      290 T=  4206. E= 0.11075244E+05 F= 0.62977702E+04 EK= 0.47775E+04 SP= 0.00E+00 SK= 0.00E+00
      300 T=  4272. E= 0.11075172E+05 F= 0.62231518E+04 EK= 0.48520E+04 SP= 0.00E+00 SK= 0.00E+00
      310 T=  4259. E= 0.11075257E+05 F= 0.62374914E+04 EK= 0.48378E+04 SP= 0.00E+00 SK= 0.00E+00
      320 T=  4246. E= 0.11075198E+05 F= 0.62525293E+04 EK= 0.48227E+04 SP= 0.00E+00 SK= 0.00E+00
      330 T=  4228. E= 0.11075201E+05 F= 0.62728028E+04 EK= 0.48024E+04 SP= 0.00E+00 SK= 0.00E+00
      340 T=  4229. E= 0.11075200E+05 F= 0.62713526E+04 EK= 0.48038E+04 SP= 0.00E+00 SK= 0.00E+00
      350 T=  4204. E= 0.11075271E+05 F= 0.62998695E+04 EK= 0.47754E+04 SP= 0.00E+00 SK= 0.00E+00
      360 T=  4215. E= 0.11075228E+05 F= 0.62879804E+04 EK= 0.47872E+04 SP= 0.00E+00 SK= 0.00E+00
Randomizing velocities, T = 12000.
      370 T=  6063. E= 0.13206168E+05 F= 0.63201043E+04 EK= 0.68861E+04 SP= 0.00E+00 SK= 0.00E+00
      380 T=  5833. E= 0.13206774E+05 F= 0.65821181E+04 EK= 0.66247E+04 SP= 0.00E+00 SK= 0.00E+00
      390 T=  5564. E= 0.13206569E+05 F= 0.68873426E+04 EK= 0.63192E+04 SP= 0.00E+00 SK= 0.00E+00
      400 T=  5508. E= 0.13206630E+05 F= 0.69502990E+04 EK= 0.62563E+04 SP= 0.00E+00 SK= 0.00E+00
      410 T=  5623. E= 0.13206352E+05 F= 0.68198965E+04 EK= 0.63865E+04 SP= 0.00E+00 SK= 0.00E+00
      420 T=  5627. E= 0.13206287E+05 F= 0.68146163E+04 EK= 0.63917E+04 SP= 0.00E+00 SK= 0.00E+00
      430 T=  5577. E= 0.13206515E+05 F= 0.68721099E+04 EK= 0.63344E+04 SP= 0.00E+00 SK= 0.00E+00
      440 T=  5588. E= 0.13206541E+05 F= 0.68598707E+04 EK= 0.63467E+04 SP= 0.00E+00 SK= 0.00E+00
      450 T=  5606. E= 0.13206281E+05 F= 0.68394650E+04 EK= 0.63668E+04 SP= 0.00E+00 SK= 0.00E+00
      460 T=  5587. E= 0.13206323E+05 F= 0.68604556E+04 EK= 0.63459E+04 SP= 0.00E+00 SK= 0.00E+00
      470 T=  5593. E= 0.13206292E+05 F= 0.68536371E+04 EK= 0.63527E+04 SP= 0.00E+00 SK= 0.00E+00
      480 T=  5583. E= 0.13206577E+05 F= 0.68658581E+04 EK= 0.63407E+04 SP= 0.00E+00 SK= 0.00E+00
      490 T=  5599. E= 0.13206438E+05 F= 0.68465476E+04 EK= 0.63599E+04 SP= 0.00E+00 SK= 0.00E+00
      500 T=  5606. E= 0.13206466E+05 F= 0.68389426E+04 EK= 0.63675E+04 SP= 0.00E+00 SK= 0.00E+00
      510 T=  5638. E= 0.13206493E+05 F= 0.68028079E+04 EK= 0.64037E+04 SP= 0.00E+00 SK= 0.00E+00
      520 T=  5597. E= 0.13206446E+05 F= 0.68489883E+04 EK= 0.63575E+04 SP= 0.00E+00 SK= 0.00E+00
      530 T=  5580. E= 0.13206607E+05 F= 0.68687919E+04 EK= 0.63378E+04 SP= 0.00E+00 SK= 0.00E+00
      540 T=  5606. E= 0.13206496E+05 F= 0.68392626E+04 EK= 0.63672E+04 SP= 0.00E+00 SK= 0.00E+00
      550 T=  5576. E= 0.13206439E+05 F= 0.68734209E+04 EK= 0.63330E+04 SP= 0.00E+00 SK= 0.00E+00
      560 T=  5615. E= 0.13206359E+05 F= 0.68289830E+04 EK= 0.63774E+04 SP= 0.00E+00 SK= 0.00E+00
      570 T=  5592. E= 0.13206562E+05 F= 0.68549633E+04 EK= 0.63516E+04 SP= 0.00E+00 SK= 0.00E+00
      580 T=  5579. E= 0.13206599E+05 F= 0.68703081E+04 EK= 0.63363E+04 SP= 0.00E+00 SK= 0.00E+00
      590 T=  5559. E= 0.13206550E+05 F= 0.68925115E+04 EK= 0.63140E+04 SP= 0.00E+00 SK= 0.00E+00
      600 T=  5611. E= 0.13206383E+05 F= 0.68335521E+04 EK= 0.63728E+04 SP= 0.00E+00 SK= 0.00E+00
      610 T=  5594. E= 0.13206509E+05 F= 0.68532006E+04 EK= 0.63533E+04 SP= 0.00E+00 SK= 0.00E+00
      620 T=  5610. E= 0.13206509E+05 F= 0.68340746E+04 EK= 0.63724E+04 SP= 0.00E+00 SK= 0.00E+00
      630 T=  5626. E= 0.13206361E+05 F= 0.68164768E+04 EK= 0.63899E+04 SP= 0.00E+00 SK= 0.00E+00
      640 T=  5559. E= 0.13206447E+05 F= 0.68923737E+04 EK= 0.63141E+04 SP= 0.00E+00 SK= 0.00E+00
      650 T=  5572. E= 0.13206409E+05 F= 0.68778341E+04 EK= 0.63286E+04 SP= 0.00E+00 SK= 0.00E+00
      660 T=  5561. E= 0.13206659E+05 F= 0.68907424E+04 EK= 0.63159E+04 SP= 0.00E+00 SK= 0.00E+00
      670 T=  5601. E= 0.13206422E+05 F= 0.68449497E+04 EK= 0.63615E+04 SP= 0.00E+00 SK= 0.00E+00
      680 T=  5591. E= 0.13206390E+05 F= 0.68557793E+04 EK= 0.63506E+04 SP= 0.00E+00 SK= 0.00E+00
      690 T=  5636. E= 0.13206382E+05 F= 0.68053376E+04 EK= 0.64010E+04 SP= 0.00E+00 SK= 0.00E+00
      700 T=  5623. E= 0.13206368E+05 F= 0.68197309E+04 EK= 0.63866E+04 SP= 0.00E+00 SK= 0.00E+00
      710 T=  5541. E= 0.13206564E+05 F= 0.69129022E+04 EK= 0.62937E+04 SP= 0.00E+00 SK= 0.00E+00
      720 T=  5579. E= 0.13206463E+05 F= 0.68700055E+04 EK= 0.63365E+04 SP= 0.00E+00 SK= 0.00E+00
      730 T=  5601. E= 0.13206499E+05 F= 0.68450357E+04 EK= 0.63615E+04 SP= 0.00E+00 SK= 0.00E+00
      740 T=  5627. E= 0.13206425E+05 F= 0.68147376E+04 EK= 0.63917E+04 SP= 0.00E+00 SK= 0.00E+00
      750 T=  5621. E= 0.13206433E+05 F= 0.68218355E+04 EK= 0.63846E+04 SP= 0.00E+00 SK= 0.00E+00
      760 T=  5585. E= 0.13206442E+05 F= 0.68624763E+04 EK= 0.63440E+04 SP= 0.00E+00 SK= 0.00E+00
      770 T=  5550. E= 0.13206558E+05 F= 0.69033066E+04 EK= 0.63033E+04 SP= 0.00E+00 SK= 0.00E+00
      780 T=  5646. E= 0.13206540E+05 F= 0.67942036E+04 EK= 0.64123E+04 SP= 0.00E+00 SK= 0.00E+00
      790 T=  5649. E= 0.13206556E+05 F= 0.67901488E+04 EK= 0.64164E+04 SP= 0.00E+00 SK= 0.00E+00
      800 T=  5568. E= 0.13206684E+05 F= 0.68821349E+04 EK= 0.63245E+04 SP= 0.00E+00 SK= 0.00E+00
      810 T=  5630. E= 0.13206491E+05 F= 0.68116693E+04 EK= 0.63948E+04 SP= 0.00E+00 SK= 0.00E+00
      820 T=  5573. E= 0.13206714E+05 F= 0.68773335E+04 EK= 0.63294E+04 SP= 0.00E+00 SK= 0.00E+00
      830 T=  5621. E= 0.13206461E+05 F= 0.68219006E+04 EK= 0.63846E+04 SP= 0.00E+00 SK= 0.00E+00
      840 T=  5607. E= 0.13206547E+05 F= 0.68375206E+04 EK= 0.63690E+04 SP= 0.00E+00 SK= 0.00E+00
      850 T=  5576. E= 0.13206572E+05 F= 0.68736761E+04 EK= 0.63329E+04 SP= 0.00E+00 SK= 0.00E+00
      860 T=  5624. E= 0.13206404E+05 F= 0.68182436E+04 EK= 0.63882E+04 SP= 0.00E+00 SK= 0.00E+00
      870 T=  5591. E= 0.13206401E+05 F= 0.68561447E+04 EK= 0.63503E+04 SP= 0.00E+00 SK= 0.00E+00
      880 T=  5553. E= 0.13206458E+05 F= 0.68996423E+04 EK= 0.63068E+04 SP= 0.00E+00 SK= 0.00E+00
      890 T=  5589. E= 0.13206420E+05 F= 0.68588815E+04 EK= 0.63475E+04 SP= 0.00E+00 SK= 0.00E+00
      900 T=  5615. E= 0.13206503E+05 F= 0.68290581E+04 EK= 0.63774E+04 SP= 0.00E+00 SK= 0.00E+00
      910 T=  5604. E= 0.13206449E+05 F= 0.68410109E+04 EK= 0.63654E+04 SP= 0.00E+00 SK= 0.00E+00
      920 T=  5619. E= 0.13206390E+05 F= 0.68240939E+04 EK= 0.63823E+04 SP= 0.00E+00 SK= 0.00E+00
      930 T=  5538. E= 0.13206495E+05 F= 0.69165096E+04 EK= 0.62900E+04 SP= 0.00E+00 SK= 0.00E+00
      940 T=  5594. E= 0.13206183E+05 F= 0.68528416E+04 EK= 0.63533E+04 SP= 0.00E+00 SK= 0.00E+00
      950 T=  5533. E= 0.13206479E+05 F= 0.69219214E+04 EK= 0.62846E+04 SP= 0.00E+00 SK= 0.00E+00
      960 T=  5525. E= 0.13206458E+05 F= 0.69312466E+04 EK= 0.62752E+04 SP= 0.00E+00 SK= 0.00E+00
      970 T=  5571. E= 0.13206429E+05 F= 0.68790545E+04 EK= 0.63274E+04 SP= 0.00E+00 SK= 0.00E+00
      980 T=  5590. E= 0.13206394E+05 F= 0.68568720E+04 EK= 0.63495E+04 SP= 0.00E+00 SK= 0.00E+00
      990 T=  5625. E= 0.13206486E+05 F= 0.68173886E+04 EK= 0.63891E+04 SP= 0.00E+00 SK= 0.00E+00
     1000 T=  5612. E= 0.13206806E+05 F= 0.68325740E+04 EK= 0.63742E+04 SP= 0.00E+00 SK= 0.00E+00
     1010 T=  5671. E= 0.13206426E+05 F= 0.67650425E+04 EK= 0.64414E+04 SP= 0.00E+00 SK= 0.00E+00
     1020 T=  5627. E= 0.13206780E+05 F= 0.68156951E+04 EK= 0.63911E+04 SP= 0.00E+00 SK= 0.00E+00
     1030 T=  5625. E= 0.13206567E+05 F= 0.68170480E+04 EK= 0.63895E+04 SP= 0.00E+00 SK= 0.00E+00
     1040 T=  5641. E= 0.13206381E+05 F= 0.67989471E+04 EK= 0.64074E+04 SP= 0.00E+00 SK= 0.00E+00
     1050 T=  5611. E= 0.13206569E+05 F= 0.68338246E+04 EK= 0.63727E+04 SP= 0.00E+00 SK= 0.00E+00
     1060 T=  5620. E= 0.13206358E+05 F= 0.68231212E+04 EK= 0.63832E+04 SP= 0.00E+00 SK= 0.00E+00
Randomizing velocities, T = 12000.
     1070 T=  5983. E= 0.13670448E+05 F= 0.68747655E+04 EK= 0.67957E+04 SP= 0.00E+00 SK= 0.00E+00
     1080 T=  5905. E= 0.13670807E+05 F= 0.69638671E+04 EK= 0.67069E+04 SP= 0.00E+00 SK= 0.00E+00
     1090 T=  5938. E= 0.13670518E+05 F= 0.69257801E+04 EK= 0.67447E+04 SP= 0.00E+00 SK= 0.00E+00
     1100 T=  5966. E= 0.13670388E+05 F= 0.68938750E+04 EK= 0.67765E+04 SP= 0.00E+00 SK= 0.00E+00
     1110 T=  5843. E= 0.13670701E+05 F= 0.70335926E+04 EK= 0.66371E+04 SP= 0.00E+00 SK= 0.00E+00
     1120 T=  5883. E= 0.13670393E+05 F= 0.69888017E+04 EK= 0.66816E+04 SP= 0.00E+00 SK= 0.00E+00
     1130 T=  5873. E= 0.13670490E+05 F= 0.69993374E+04 EK= 0.66712E+04 SP= 0.00E+00 SK= 0.00E+00
     1140 T=  5904. E= 0.13670417E+05 F= 0.69645196E+04 EK= 0.67059E+04 SP= 0.00E+00 SK= 0.00E+00
     1150 T=  5864. E= 0.13670729E+05 F= 0.70100234E+04 EK= 0.66607E+04 SP= 0.00E+00 SK= 0.00E+00
     1160 T=  5926. E= 0.13670478E+05 F= 0.69398525E+04 EK= 0.67306E+04 SP= 0.00E+00 SK= 0.00E+00
     1170 T=  5963. E= 0.13670506E+05 F= 0.68977082E+04 EK= 0.67728E+04 SP= 0.00E+00 SK= 0.00E+00
     1180 T=  5936. E= 0.13670671E+05 F= 0.69284289E+04 EK= 0.67422E+04 SP= 0.00E+00 SK= 0.00E+00
     1190 T=  5863. E= 0.13670671E+05 F= 0.70117292E+04 EK= 0.66589E+04 SP= 0.00E+00 SK= 0.00E+00
     1200 T=  5872. E= 0.13670542E+05 F= 0.70011291E+04 EK= 0.66694E+04 SP= 0.00E+00 SK= 0.00E+00
     1210 T=  5863. E= 0.13670408E+05 F= 0.70111398E+04 EK= 0.66593E+04 SP= 0.00E+00 SK= 0.00E+00
     1220 T=  5821. E= 0.13670641E+05 F= 0.70585537E+04 EK= 0.66121E+04 SP= 0.00E+00 SK= 0.00E+00
     1230 T=  5890. E= 0.13670389E+05 F= 0.69801305E+04 EK= 0.66903E+04 SP= 0.00E+00 SK= 0.00E+00
     1240 T=  5864. E= 0.13670846E+05 F= 0.70101544E+04 EK= 0.66607E+04 SP= 0.00E+00 SK= 0.00E+00
     1250 T=  5985. E= 0.13670621E+05 F= 0.68732249E+04 EK= 0.67974E+04 SP= 0.00E+00 SK= 0.00E+00
     1260 T=  5953. E= 0.13670587E+05 F= 0.69087601E+04 EK= 0.67618E+04 SP= 0.00E+00 SK= 0.00E+00
     1270 T=  5910. E= 0.13670317E+05 F= 0.69572804E+04 EK= 0.67130E+04 SP= 0.00E+00 SK= 0.00E+00
     1280 T=  5836. E= 0.13670530E+05 F= 0.70417383E+04 EK= 0.66288E+04 SP= 0.00E+00 SK= 0.00E+00
     1290 T=  5851. E= 0.13670467E+05 F= 0.70246692E+04 EK= 0.66458E+04 SP= 0.00E+00 SK= 0.00E+00
Randomizing velocities, T = 12000.
     1300 T=  5989. E= 0.13786527E+05 F= 0.69844563E+04 EK= 0.68021E+04 SP= 0.00E+00 SK= 0.00E+00
     1310 T=  6001. E= 0.13786735E+05 F= 0.69703465E+04 EK= 0.68164E+04 SP= 0.00E+00 SK= 0.00E+00
Randomizing velocities, T = 12000.
     1320 T=  5994. E= 0.13790450E+05 F= 0.69827293E+04 EK= 0.68077E+04 SP= 0.00E+00 SK= 0.00E+00
     1330 T=  6020. E= 0.13790646E+05 F= 0.69530611E+04 EK= 0.68376E+04 SP= 0.00E+00 SK= 0.00E+00
     1340 T=  6016. E= 0.13790388E+05 F= 0.69567649E+04 EK= 0.68336E+04 SP= 0.00E+00 SK= 0.00E+00
     1350 T=  6010. E= 0.13790638E+05 F= 0.69646384E+04 EK= 0.68260E+04 SP= 0.00E+00 SK= 0.00E+00
     1360 T=  5984. E= 0.13790674E+05 F= 0.69945268E+04 EK= 0.67961E+04 SP= 0.00E+00 SK= 0.00E+00
     1370 T=  5998. E= 0.13790499E+05 F= 0.69774180E+04 EK= 0.68131E+04 SP= 0.00E+00 SK= 0.00E+00
     1380 T=  5928. E= 0.13790785E+05 F= 0.70575117E+04 EK= 0.67333E+04 SP= 0.00E+00 SK= 0.00E+00
     1390 T=  5944. E= 0.13790456E+05 F= 0.70390814E+04 EK= 0.67514E+04 SP= 0.00E+00 SK= 0.00E+00
     1400 T=  5917. E= 0.13790475E+05 F= 0.70696803E+04 EK= 0.67208E+04 SP= 0.00E+00 SK= 0.00E+00
     1410 T=  5924. E= 0.13790594E+05 F= 0.70619147E+04 EK= 0.67287E+04 SP= 0.00E+00 SK= 0.00E+00
     1420 T=  5977. E= 0.13790473E+05 F= 0.70022123E+04 EK= 0.67883E+04 SP= 0.00E+00 SK= 0.00E+00
     1430 T=  5996. E= 0.13790546E+05 F= 0.69804542E+04 EK= 0.68101E+04 SP= 0.00E+00 SK= 0.00E+00
     1440 T=  5997. E= 0.13790590E+05 F= 0.69786298E+04 EK= 0.68120E+04 SP= 0.00E+00 SK= 0.00E+00
     1450 T=  6017. E= 0.13790464E+05 F= 0.69559181E+04 EK= 0.68345E+04 SP= 0.00E+00 SK= 0.00E+00
     1460 T=  6043. E= 0.13790282E+05 F= 0.69262057E+04 EK= 0.68641E+04 SP= 0.00E+00 SK= 0.00E+00
     1470 T=  5970. E= 0.13790378E+05 F= 0.70091719E+04 EK= 0.67812E+04 SP= 0.00E+00 SK= 0.00E+00
     1480 T=  5985. E= 0.13790263E+05 F= 0.69919252E+04 EK= 0.67983E+04 SP= 0.00E+00 SK= 0.00E+00
     1490 T=  5956. E= 0.13790565E+05 F= 0.70251453E+04 EK= 0.67654E+04 SP= 0.00E+00 SK= 0.00E+00
     1500 T=  5971. E= 0.13790666E+05 F= 0.70082578E+04 EK= 0.67824E+04 SP= 0.00E+00 SK= 0.00E+00
     1510 T=  5969. E= 0.13790355E+05 F= 0.70107731E+04 EK= 0.67796E+04 SP= 0.00E+00 SK= 0.00E+00
     1520 T=  5931. E= 0.13790461E+05 F= 0.70543887E+04 EK= 0.67361E+04 SP= 0.00E+00 SK= 0.00E+00
     1530 T=  5948. E= 0.13790508E+05 F= 0.70343182E+04 EK= 0.67562E+04 SP= 0.00E+00 SK= 0.00E+00
     1540 T=  5987. E= 0.13790596E+05 F= 0.69899775E+04 EK= 0.68006E+04 SP= 0.00E+00 SK= 0.00E+00
     1550 T=  5973. E= 0.13790585E+05 F= 0.70066395E+04 EK= 0.67839E+04 SP= 0.00E+00 SK= 0.00E+00
     1560 T=  5972. E= 0.13790432E+05 F= 0.70072449E+04 EK= 0.67832E+04 SP= 0.00E+00 SK= 0.00E+00
     1570 T=  6034. E= 0.13790545E+05 F= 0.69371314E+04 EK= 0.68534E+04 SP= 0.00E+00 SK= 0.00E+00
     1580 T=  5995. E= 0.13790464E+05 F= 0.69818013E+04 EK= 0.68087E+04 SP= 0.00E+00 SK= 0.00E+00
     1590 T=  5894. E= 0.13790600E+05 F= 0.70963361E+04 EK= 0.66943E+04 SP= 0.00E+00 SK= 0.00E+00
     1600 T=  5952. E= 0.13790598E+05 F= 0.70302188E+04 EK= 0.67604E+04 SP= 0.00E+00 SK= 0.00E+00
     1610 T=  5988. E= 0.13790661E+05 F= 0.69898191E+04 EK= 0.68008E+04 SP= 0.00E+00 SK= 0.00E+00
     1620 T=  6016. E= 0.13790464E+05 F= 0.69579587E+04 EK= 0.68325E+04 SP= 0.00E+00 SK= 0.00E+00
     1630 T=  5984. E= 0.13790612E+05 F= 0.69943352E+04 EK= 0.67963E+04 SP= 0.00E+00 SK= 0.00E+00
     1640 T=  5992. E= 0.13790369E+05 F= 0.69845602E+04 EK= 0.68058E+04 SP= 0.00E+00 SK= 0.00E+00
     1650 T=  5879. E= 0.13790770E+05 F= 0.71131043E+04 EK= 0.66777E+04 SP= 0.00E+00 SK= 0.00E+00
     1660 T=  5930. E= 0.13790690E+05 F= 0.70558003E+04 EK= 0.67349E+04 SP= 0.00E+00 SK= 0.00E+00
     1670 T=  5942. E= 0.13790857E+05 F= 0.70415165E+04 EK= 0.67493E+04 SP= 0.00E+00 SK= 0.00E+00
     1680 T=  5998. E= 0.13790522E+05 F= 0.69778198E+04 EK= 0.68127E+04 SP= 0.00E+00 SK= 0.00E+00
     1690 T=  5978. E= 0.13790647E+05 F= 0.70003576E+04 EK= 0.67903E+04 SP= 0.00E+00 SK= 0.00E+00
     1700 T=  5959. E= 0.13790461E+05 F= 0.70215805E+04 EK= 0.67689E+04 SP= 0.00E+00 SK= 0.00E+00
     1710 T=  5966. E= 0.13790568E+05 F= 0.70146526E+04 EK= 0.67759E+04 SP= 0.00E+00 SK= 0.00E+00
     1720 T=  5924. E= 0.13790660E+05 F= 0.70626100E+04 EK= 0.67280E+04 SP= 0.00E+00 SK= 0.00E+00
     1730 T=  5944. E= 0.13790318E+05 F= 0.70387670E+04 EK= 0.67516E+04 SP= 0.00E+00 SK= 0.00E+00
     1740 T=  5956. E= 0.13790402E+05 F= 0.70256875E+04 EK= 0.67647E+04 SP= 0.00E+00 SK= 0.00E+00
     1750 T=  5949. E= 0.13790798E+05 F= 0.70340631E+04 EK= 0.67567E+04 SP= 0.00E+00 SK= 0.00E+00
     1760 T=  6054. E= 0.13790720E+05 F= 0.69148355E+04 EK= 0.68759E+04 SP= 0.00E+00 SK= 0.00E+00
     1770 T=  6065. E= 0.13790495E+05 F= 0.69015834E+04 EK= 0.68889E+04 SP= 0.00E+00 SK= 0.00E+00
     1780 T=  5952. E= 0.13790345E+05 F= 0.70294478E+04 EK= 0.67609E+04 SP= 0.00E+00 SK= 0.00E+00
     1790 T=  5923. E= 0.13790583E+05 F= 0.70626177E+04 EK= 0.67280E+04 SP= 0.00E+00 SK= 0.00E+00
     1800 T=  6000. E= 0.13790666E+05 F= 0.69757175E+04 EK= 0.68149E+04 SP= 0.00E+00 SK= 0.00E+00
     1810 T=  5993. E= 0.13790679E+05 F= 0.69839628E+04 EK= 0.68067E+04 SP= 0.00E+00 SK= 0.00E+00
     1820 T=  5978. E= 0.13790586E+05 F= 0.70002928E+04 EK= 0.67903E+04 SP= 0.00E+00 SK= 0.00E+00
     1830 T=  5938. E= 0.13790651E+05 F= 0.70464602E+04 EK= 0.67442E+04 SP= 0.00E+00 SK= 0.00E+00
     1840 T=  5981. E= 0.13790648E+05 F= 0.69968581E+04 EK= 0.67938E+04 SP= 0.00E+00 SK= 0.00E+00
     1850 T=  6000. E= 0.13790582E+05 F= 0.69757245E+04 EK= 0.68149E+04 SP= 0.00E+00 SK= 0.00E+00
     1860 T=  6026. E= 0.13790660E+05 F= 0.69460243E+04 EK= 0.68446E+04 SP= 0.00E+00 SK= 0.00E+00
     1870 T=  6033. E= 0.13790694E+05 F= 0.69385057E+04 EK= 0.68522E+04 SP= 0.00E+00 SK= 0.00E+00
     1880 T=  5977. E= 0.13790539E+05 F= 0.70016525E+04 EK= 0.67889E+04 SP= 0.00E+00 SK= 0.00E+00
     1890 T=  5982. E= 0.13790607E+05 F= 0.69959860E+04 EK= 0.67946E+04 SP= 0.00E+00 SK= 0.00E+00
     1900 T=  5981. E= 0.13790611E+05 F= 0.69968462E+04 EK= 0.67938E+04 SP= 0.00E+00 SK= 0.00E+00
     1910 T=  6015. E= 0.13790557E+05 F= 0.69590778E+04 EK= 0.68315E+04 SP= 0.00E+00 SK= 0.00E+00
     1920 T=  6015. E= 0.13790423E+05 F= 0.69581481E+04 EK= 0.68323E+04 SP= 0.00E+00 SK= 0.00E+00
     1930 T=  5932. E= 0.13790702E+05 F= 0.70534707E+04 EK= 0.67372E+04 SP= 0.00E+00 SK= 0.00E+00
     1940 T=  5965. E= 0.13790607E+05 F= 0.70153434E+04 EK= 0.67753E+04 SP= 0.00E+00 SK= 0.00E+00
     1950 T=  5976. E= 0.13790792E+05 F= 0.70026564E+04 EK= 0.67881E+04 SP= 0.00E+00 SK= 0.00E+00
     1960 T=  6024. E= 0.13790627E+05 F= 0.69480665E+04 EK= 0.68426E+04 SP= 0.00E+00 SK= 0.00E+00
     1970 T=  5954. E= 0.13790696E+05 F= 0.70285729E+04 EK= 0.67621E+04 SP= 0.00E+00 SK= 0.00E+00
     1980 T=  5964. E= 0.13790562E+05 F= 0.70161520E+04 EK= 0.67744E+04 SP= 0.00E+00 SK= 0.00E+00
     1990 T=  5971. E= 0.13790685E+05 F= 0.70084805E+04 EK= 0.67822E+04 SP= 0.00E+00 SK= 0.00E+00
     2000 T=  6018. E= 0.13790359E+05 F= 0.69545498E+04 EK= 0.68358E+04 SP= 0.00E+00 SK= 0.00E+00
     2010 T=  5923. E= 0.13790670E+05 F= 0.70629713E+04 EK= 0.67277E+04 SP= 0.00E+00 SK= 0.00E+00
     2020 T=  5982. E= 0.13790580E+05 F= 0.69955936E+04 EK= 0.67950E+04 SP= 0.00E+00 SK= 0.00E+00
     2030 T=  5959. E= 0.13790532E+05 F= 0.70227357E+04 EK= 0.67678E+04 SP= 0.00E+00 SK= 0.00E+00
     2040 T=  5943. E= 0.13790549E+05 F= 0.70401214E+04 EK= 0.67504E+04 SP= 0.00E+00 SK= 0.00E+00
     2050 T=  5944. E= 0.13790827E+05 F= 0.70396155E+04 EK= 0.67512E+04 SP= 0.00E+00 SK= 0.00E+00
     2060 T=  5964. E= 0.13790495E+05 F= 0.70168176E+04 EK= 0.67737E+04 SP= 0.00E+00 SK= 0.00E+00
     2070 T=  5963. E= 0.13790620E+05 F= 0.70183227E+04 EK= 0.67723E+04 SP= 0.00E+00 SK= 0.00E+00
     2080 T=  5994. E= 0.13790359E+05 F= 0.69822985E+04 EK= 0.68081E+04 SP= 0.00E+00 SK= 0.00E+00
     2090 T=  5940. E= 0.13790699E+05 F= 0.70437025E+04 EK= 0.67470E+04 SP= 0.00E+00 SK= 0.00E+00
     2100 T=  5998. E= 0.13790511E+05 F= 0.69782350E+04 EK= 0.68123E+04 SP= 0.00E+00 SK= 0.00E+00
     2110 T=  6017. E= 0.13790518E+05 F= 0.69560303E+04 EK= 0.68345E+04 SP= 0.00E+00 SK= 0.00E+00
Randomizing velocities, T = 12000.
     2120 T=  5936. E= 0.13737388E+05 F= 0.69953572E+04 EK= 0.67420E+04 SP= 0.00E+00 SK= 0.00E+00
     2130 T=  6045. E= 0.13737254E+05 F= 0.68708921E+04 EK= 0.68664E+04 SP= 0.00E+00 SK= 0.00E+00
     2140 T=  6011. E= 0.13737296E+05 F= 0.69100052E+04 EK= 0.68273E+04 SP= 0.00E+00 SK= 0.00E+00
     2150 T=  5974. E= 0.13737243E+05 F= 0.69522219E+04 EK= 0.67850E+04 SP= 0.00E+00 SK= 0.00E+00
     2160 T=  5911. E= 0.13737240E+05 F= 0.70240035E+04 EK= 0.67132E+04 SP= 0.00E+00 SK= 0.00E+00
     2170 T=  5930. E= 0.13737286E+05 F= 0.70013475E+04 EK= 0.67359E+04 SP= 0.00E+00 SK= 0.00E+00
     2180 T=  5934. E= 0.13737142E+05 F= 0.69971961E+04 EK= 0.67399E+04 SP= 0.00E+00 SK= 0.00E+00
     2190 T=  5901. E= 0.13737374E+05 F= 0.70348007E+04 EK= 0.67026E+04 SP= 0.00E+00 SK= 0.00E+00
     2200 T=  5962. E= 0.13737129E+05 F= 0.69658873E+04 EK= 0.67712E+04 SP= 0.00E+00 SK= 0.00E+00
     2210 T=  5919. E= 0.13737283E+05 F= 0.70144352E+04 EK= 0.67228E+04 SP= 0.00E+00 SK= 0.00E+00
     2220 T=  5913. E= 0.13737379E+05 F= 0.70215960E+04 EK= 0.67158E+04 SP= 0.00E+00 SK= 0.00E+00
Randomizing velocities, T = 12000.
     2230 T=  6021. E= 0.13870035E+05 F= 0.70311973E+04 EK= 0.68388E+04 SP= 0.00E+00 SK= 0.00E+00
     2240 T=  6067. E= 0.13870035E+05 F= 0.69793563E+04 EK= 0.68907E+04 SP= 0.00E+00 SK= 0.00E+00
     2250 T=  6103. E= 0.13869992E+05 F= 0.69381478E+04 EK= 0.69318E+04 SP= 0.00E+00 SK= 0.00E+00
     2260 T=  5986. E= 0.13870049E+05 F= 0.70707347E+04 EK= 0.67993E+04 SP= 0.00E+00 SK= 0.00E+00
     2270 T=  5919. E= 0.13870287E+05 F= 0.71478546E+04 EK= 0.67224E+04 SP= 0.00E+00 SK= 0.00E+00
     2280 T=  6010. E= 0.13869979E+05 F= 0.70438404E+04 EK= 0.68261E+04 SP= 0.00E+00 SK= 0.00E+00
     2290 T=  6070. E= 0.13869552E+05 F= 0.69750290E+04 EK= 0.68945E+04 SP= 0.00E+00 SK= 0.00E+00
     2300 T=  5978. E= 0.13870261E+05 F= 0.70803851E+04 EK= 0.67899E+04 SP= 0.00E+00 SK= 0.00E+00
     2310 T=  6025. E= 0.13870197E+05 F= 0.70272804E+04 EK= 0.68429E+04 SP= 0.00E+00 SK= 0.00E+00
     2320 T=  6057. E= 0.13870011E+05 F= 0.69902700E+04 EK= 0.68797E+04 SP= 0.00E+00 SK= 0.00E+00
     2330 T=  6001. E= 0.13869969E+05 F= 0.70536615E+04 EK= 0.68163E+04 SP= 0.00E+00 SK= 0.00E+00
     2340 T=  6007. E= 0.13870007E+05 F= 0.70473739E+04 EK= 0.68226E+04 SP= 0.00E+00 SK= 0.00E+00
     2350 T=  5991. E= 0.13870081E+05 F= 0.70650445E+04 EK= 0.68050E+04 SP= 0.00E+00 SK= 0.00E+00
     2360 T=  5989. E= 0.13869987E+05 F= 0.70680937E+04 EK= 0.68019E+04 SP= 0.00E+00 SK= 0.00E+00
     2370 T=  6033. E= 0.13869953E+05 F= 0.70176249E+04 EK= 0.68523E+04 SP= 0.00E+00 SK= 0.00E+00
     2380 T=  6051. E= 0.13870144E+05 F= 0.69978543E+04 EK= 0.68723E+04 SP= 0.00E+00 SK= 0.00E+00
     2390 T=  6069. E= 0.13870159E+05 F= 0.69770464E+04 EK= 0.68931E+04 SP= 0.00E+00 SK= 0.00E+00
     2400 T=  6068. E= 0.13870057E+05 F= 0.69784729E+04 EK= 0.68916E+04 SP= 0.00E+00 SK= 0.00E+00
     2410 T=  6098. E= 0.13870033E+05 F= 0.69435730E+04 EK= 0.69265E+04 SP= 0.00E+00 SK= 0.00E+00
     2420 T=  6036. E= 0.13870188E+05 F= 0.70144207E+04 EK= 0.68558E+04 SP= 0.00E+00 SK= 0.00E+00
     2430 T=  6064. E= 0.13870128E+05 F= 0.69830885E+04 EK= 0.68870E+04 SP= 0.00E+00 SK= 0.00E+00
     2440 T=  6090. E= 0.13869971E+05 F= 0.69533083E+04 EK= 0.69167E+04 SP= 0.00E+00 SK= 0.00E+00
     2450 T=  6067. E= 0.13869947E+05 F= 0.69789966E+04 EK= 0.68910E+04 SP= 0.00E+00 SK= 0.00E+00
     2460 T=  6018. E= 0.13870176E+05 F= 0.70352649E+04 EK= 0.68349E+04 SP= 0.00E+00 SK= 0.00E+00
     2470 T=  5955. E= 0.13870269E+05 F= 0.71062075E+04 EK= 0.67641E+04 SP= 0.00E+00 SK= 0.00E+00
     2480 T=  5982. E= 0.13869884E+05 F= 0.70753935E+04 EK= 0.67945E+04 SP= 0.00E+00 SK= 0.00E+00
     2490 T=  6014. E= 0.13870197E+05 F= 0.70396337E+04 EK= 0.68306E+04 SP= 0.00E+00 SK= 0.00E+00
     2500 T=  6039. E= 0.13870221E+05 F= 0.70112147E+04 EK= 0.68590E+04 SP= 0.00E+00 SK= 0.00E+00
     2510 T=  6034. E= 0.13870180E+05 F= 0.70168010E+04 EK= 0.68534E+04 SP= 0.00E+00 SK= 0.00E+00
     2520 T=  6045. E= 0.13869993E+05 F= 0.70044732E+04 EK= 0.68655E+04 SP= 0.00E+00 SK= 0.00E+00
     2530 T=  6033. E= 0.13870044E+05 F= 0.70173450E+04 EK= 0.68527E+04 SP= 0.00E+00 SK= 0.00E+00
     2540 T=  6033. E= 0.13870072E+05 F= 0.70176092E+04 EK= 0.68525E+04 SP= 0.00E+00 SK= 0.00E+00
Randomizing velocities, T = 12000.
     2550 T=  6015. E= 0.13814040E+05 F= 0.69821797E+04 EK= 0.68319E+04 SP= 0.00E+00 SK= 0.00E+00
Randomizing velocities, T = 12000.
     2560 T=  5989. E= 0.13849651E+05 F= 0.70475269E+04 EK= 0.68021E+04 SP= 0.00E+00 SK= 0.00E+00
     2570 T=  6029. E= 0.13849672E+05 F= 0.70020439E+04 EK= 0.68476E+04 SP= 0.00E+00 SK= 0.00E+00
     2580 T=  6029. E= 0.13849755E+05 F= 0.70022819E+04 EK= 0.68475E+04 SP= 0.00E+00 SK= 0.00E+00
     2590 T=  6024. E= 0.13849625E+05 F= 0.70073312E+04 EK= 0.68423E+04 SP= 0.00E+00 SK= 0.00E+00
     2600 T=  6000. E= 0.13849508E+05 F= 0.70346584E+04 EK= 0.68148E+04 SP= 0.00E+00 SK= 0.00E+00
     2610 T=  5960. E= 0.13849600E+05 F= 0.70806199E+04 EK= 0.67690E+04 SP= 0.00E+00 SK= 0.00E+00
     2620 T=  5939. E= 0.13849696E+05 F= 0.71044862E+04 EK= 0.67452E+04 SP= 0.00E+00 SK= 0.00E+00
     2630 T=  5986. E= 0.13849649E+05 F= 0.70503935E+04 EK= 0.67993E+04 SP= 0.00E+00 SK= 0.00E+00
     2640 T=  6027. E= 0.13849603E+05 F= 0.70042445E+04 EK= 0.68454E+04 SP= 0.00E+00 SK= 0.00E+00
     2650 T=  5956. E= 0.13849755E+05 F= 0.70853251E+04 EK= 0.67644E+04 SP= 0.00E+00 SK= 0.00E+00
     2660 T=  6000. E= 0.13849356E+05 F= 0.70339673E+04 EK= 0.68154E+04 SP= 0.00E+00 SK= 0.00E+00
     2670 T=  5998. E= 0.13849604E+05 F= 0.70364831E+04 EK= 0.68131E+04 SP= 0.00E+00 SK= 0.00E+00
     2680 T=  5998. E= 0.13849564E+05 F= 0.70374067E+04 EK= 0.68122E+04 SP= 0.00E+00 SK= 0.00E+00
     2690 T=  6015. E= 0.13849470E+05 F= 0.70175427E+04 EK= 0.68319E+04 SP= 0.00E+00 SK= 0.00E+00
     2700 T=  5958. E= 0.13849847E+05 F= 0.70827834E+04 EK= 0.67671E+04 SP= 0.00E+00 SK= 0.00E+00
     2710 T=  5995. E= 0.13849578E+05 F= 0.70398493E+04 EK= 0.68097E+04 SP= 0.00E+00 SK= 0.00E+00
     2720 T=  5965. E= 0.13849744E+05 F= 0.70741068E+04 EK= 0.67756E+04 SP= 0.00E+00 SK= 0.00E+00
     2730 T=  6008. E= 0.13849600E+05 F= 0.70251581E+04 EK= 0.68244E+04 SP= 0.00E+00 SK= 0.00E+00
     2740 T=  6031. E= 0.13849673E+05 F= 0.69990671E+04 EK= 0.68506E+04 SP= 0.00E+00 SK= 0.00E+00
     2750 T=  6015. E= 0.13849524E+05 F= 0.70174507E+04 EK= 0.68321E+04 SP= 0.00E+00 SK= 0.00E+00
     2760 T=  5969. E= 0.13849700E+05 F= 0.70702037E+04 EK= 0.67795E+04 SP= 0.00E+00 SK= 0.00E+00
     2770 T=  5954. E= 0.13849868E+05 F= 0.70874817E+04 EK= 0.67624E+04 SP= 0.00E+00 SK= 0.00E+00
     2780 T=  5987. E= 0.13849657E+05 F= 0.70498172E+04 EK= 0.67998E+04 SP= 0.00E+00 SK= 0.00E+00
     2790 T=  6031. E= 0.13849523E+05 F= 0.69994883E+04 EK= 0.68500E+04 SP= 0.00E+00 SK= 0.00E+00
     2800 T=  6072. E= 0.13849567E+05 F= 0.69532093E+04 EK= 0.68964E+04 SP= 0.00E+00 SK= 0.00E+00
     2810 T=  6007. E= 0.13849560E+05 F= 0.70271620E+04 EK= 0.68224E+04 SP= 0.00E+00 SK= 0.00E+00
     2820 T=  5964. E= 0.13849783E+05 F= 0.70760935E+04 EK= 0.67737E+04 SP= 0.00E+00 SK= 0.00E+00
     2830 T=  6028. E= 0.13849554E+05 F= 0.70030577E+04 EK= 0.68465E+04 SP= 0.00E+00 SK= 0.00E+00
     2840 T=  6026. E= 0.13849531E+05 F= 0.70052376E+04 EK= 0.68443E+04 SP= 0.00E+00 SK= 0.00E+00
     2850 T=  5968. E= 0.13849676E+05 F= 0.70715705E+04 EK= 0.67781E+04 SP= 0.00E+00 SK= 0.00E+00
     2860 T=  5961. E= 0.13849768E+05 F= 0.70788121E+04 EK= 0.67710E+04 SP= 0.00E+00 SK= 0.00E+00
     2870 T=  5967. E= 0.13849738E+05 F= 0.70721602E+04 EK= 0.67776E+04 SP= 0.00E+00 SK= 0.00E+00
     2880 T=  6035. E= 0.13849253E+05 F= 0.69943233E+04 EK= 0.68549E+04 SP= 0.00E+00 SK= 0.00E+00
     2890 T=  5995. E= 0.13849611E+05 F= 0.70403253E+04 EK= 0.68093E+04 SP= 0.00E+00 SK= 0.00E+00
     2900 T=  6077. E= 0.13849578E+05 F= 0.69474241E+04 EK= 0.69022E+04 SP= 0.00E+00 SK= 0.00E+00
     2910 T=  6047. E= 0.13849591E+05 F= 0.69810118E+04 EK= 0.68686E+04 SP= 0.00E+00 SK= 0.00E+00
     2920 T=  6003. E= 0.13849483E+05 F= 0.70316690E+04 EK= 0.68178E+04 SP= 0.00E+00 SK= 0.00E+00
     2930 T=  5968. E= 0.13849635E+05 F= 0.70716327E+04 EK= 0.67780E+04 SP= 0.00E+00 SK= 0.00E+00
     2940 T=  5996. E= 0.13849642E+05 F= 0.70391843E+04 EK= 0.68105E+04 SP= 0.00E+00 SK= 0.00E+00
     2950 T=  5979. E= 0.13849559E+05 F= 0.70588020E+04 EK= 0.67908E+04 SP= 0.00E+00 SK= 0.00E+00
     2960 T=  5977. E= 0.13849457E+05 F= 0.70608022E+04 EK= 0.67887E+04 SP= 0.00E+00 SK= 0.00E+00
     2970 T=  6002. E= 0.13849475E+05 F= 0.70324616E+04 EK= 0.68170E+04 SP= 0.00E+00 SK= 0.00E+00
     2980 T=  6028. E= 0.13849593E+05 F= 0.70025564E+04 EK= 0.68470E+04 SP= 0.00E+00 SK= 0.00E+00
     2990 T=  6062. E= 0.13849583E+05 F= 0.69642192E+04 EK= 0.68854E+04 SP= 0.00E+00 SK= 0.00E+00
     3000 T=  6017. E= 0.13849448E+05 F= 0.70157988E+04 EK= 0.68336E+04 SP= 0.00E+00 SK= 0.00E+00
     3010 T=  5999. E= 0.13849435E+05 F= 0.70353378E+04 EK= 0.68141E+04 SP= 0.00E+00 SK= 0.00E+00
     3020 T=  5997. E= 0.13849722E+05 F= 0.70381659E+04 EK= 0.68116E+04 SP= 0.00E+00 SK= 0.00E+00
     3030 T=  6008. E= 0.13849512E+05 F= 0.70260260E+04 EK= 0.68235E+04 SP= 0.00E+00 SK= 0.00E+00
     3040 T=  5961. E= 0.13849636E+05 F= 0.70786415E+04 EK= 0.67710E+04 SP= 0.00E+00 SK= 0.00E+00
     3050 T=  6017. E= 0.13849822E+05 F= 0.70158303E+04 EK= 0.68340E+04 SP= 0.00E+00 SK= 0.00E+00
     3060 T=  6095. E= 0.13849757E+05 F= 0.69270263E+04 EK= 0.69227E+04 SP= 0.00E+00 SK= 0.00E+00
     3070 T=  5987. E= 0.13849839E+05 F= 0.70502400E+04 EK= 0.67996E+04 SP= 0.00E+00 SK= 0.00E+00
     3080 T=  5929. E= 0.13849549E+05 F= 0.71152201E+04 EK= 0.67343E+04 SP= 0.00E+00 SK= 0.00E+00
     3090 T=  5978. E= 0.13849499E+05 F= 0.70601107E+04 EK= 0.67894E+04 SP= 0.00E+00 SK= 0.00E+00
     3100 T=  5955. E= 0.13849536E+05 F= 0.70852229E+04 EK= 0.67643E+04 SP= 0.00E+00 SK= 0.00E+00
     3110 T=  5932. E= 0.13849693E+05 F= 0.71120011E+04 EK= 0.67377E+04 SP= 0.00E+00 SK= 0.00E+00
     3120 T=  5973. E= 0.13849817E+05 F= 0.70656342E+04 EK= 0.67842E+04 SP= 0.00E+00 SK= 0.00E+00
     3130 T=  6047. E= 0.13849551E+05 F= 0.69812331E+04 EK= 0.68683E+04 SP= 0.00E+00 SK= 0.00E+00
     3140 T=  6039. E= 0.13849484E+05 F= 0.69907333E+04 EK= 0.68588E+04 SP= 0.00E+00 SK= 0.00E+00
     3150 T=  5998. E= 0.13849537E+05 F= 0.70373649E+04 EK= 0.68122E+04 SP= 0.00E+00 SK= 0.00E+00
     3160 T=  5931. E= 0.13849753E+05 F= 0.71126756E+04 EK= 0.67371E+04 SP= 0.00E+00 SK= 0.00E+00
     3170 T=  5980. E= 0.13849463E+05 F= 0.70571539E+04 EK= 0.67923E+04 SP= 0.00E+00 SK= 0.00E+00
     3180 T=  5993. E= 0.13849247E+05 F= 0.70428091E+04 EK= 0.68064E+04 SP= 0.00E+00 SK= 0.00E+00
     3190 T=  5994. E= 0.13849706E+05 F= 0.70414785E+04 EK= 0.68082E+04 SP= 0.00E+00 SK= 0.00E+00
     3200 T=  6030. E= 0.13849669E+05 F= 0.70012144E+04 EK= 0.68485E+04 SP= 0.00E+00 SK= 0.00E+00
     3210 T=  6002. E= 0.13849644E+05 F= 0.70319244E+04 EK= 0.68177E+04 SP= 0.00E+00 SK= 0.00E+00
     3220 T=  5976. E= 0.13849479E+05 F= 0.70621676E+04 EK= 0.67873E+04 SP= 0.00E+00 SK= 0.00E+00
     3230 T=  6008. E= 0.13849520E+05 F= 0.70260307E+04 EK= 0.68235E+04 SP= 0.00E+00 SK= 0.00E+00
     3240 T=  5937. E= 0.13849821E+05 F= 0.71060169E+04 EK= 0.67438E+04 SP= 0.00E+00 SK= 0.00E+00
     3250 T=  5967. E= 0.13849544E+05 F= 0.70720590E+04 EK= 0.67775E+04 SP= 0.00E+00 SK= 0.00E+00
     3260 T=  6055. E= 0.13849563E+05 F= 0.69725630E+04 EK= 0.68770E+04 SP= 0.00E+00 SK= 0.00E+00
     3270 T=  6091. E= 0.13849585E+05 F= 0.69310705E+04 EK= 0.69185E+04 SP= 0.00E+00 SK= 0.00E+00
     3280 T=  6042. E= 0.13849722E+05 F= 0.69869205E+04 EK= 0.68628E+04 SP= 0.00E+00 SK= 0.00E+00
     3290 T=  6012. E= 0.13849610E+05 F= 0.70212520E+04 EK= 0.68284E+04 SP= 0.00E+00 SK= 0.00E+00
     3300 T=  6005. E= 0.13849718E+05 F= 0.70289561E+04 EK= 0.68208E+04 SP= 0.00E+00 SK= 0.00E+00
     3310 T=  6008. E= 0.13849732E+05 F= 0.70260706E+04 EK= 0.68237E+04 SP= 0.00E+00 SK= 0.00E+00
     3320 T=  6062. E= 0.13849589E+05 F= 0.69647589E+04 EK= 0.68848E+04 SP= 0.00E+00 SK= 0.00E+00
     3330 T=  6030. E= 0.13849713E+05 F= 0.70004253E+04 EK= 0.68493E+04 SP= 0.00E+00 SK= 0.00E+00
     3340 T=  5973. E= 0.13849829E+05 F= 0.70655826E+04 EK= 0.67842E+04 SP= 0.00E+00 SK= 0.00E+00
     3350 T=  6011. E= 0.13849638E+05 F= 0.70220519E+04 EK= 0.68276E+04 SP= 0.00E+00 SK= 0.00E+00
     3360 T=  5978. E= 0.13849898E+05 F= 0.70603779E+04 EK= 0.67895E+04 SP= 0.00E+00 SK= 0.00E+00
     3370 T=  6006. E= 0.13849606E+05 F= 0.70281780E+04 EK= 0.68214E+04 SP= 0.00E+00 SK= 0.00E+00
     3380 T=  6048. E= 0.13849626E+05 F= 0.69797660E+04 EK= 0.68699E+04 SP= 0.00E+00 SK= 0.00E+00
Randomizing velocities, T = 12000.
     3390 T=  6170. E= 0.13922689E+05 F= 0.69141867E+04 EK= 0.70085E+04 SP= 0.00E+00 SK= 0.00E+00
     3400 T=  6038. E= 0.13923158E+05 F= 0.70647012E+04 EK= 0.68585E+04 SP= 0.00E+00 SK= 0.00E+00
     3410 T=  6003. E= 0.13923384E+05 F= 0.71050738E+04 EK= 0.68183E+04 SP= 0.00E+00 SK= 0.00E+00
     3420 T=  6046. E= 0.13923275E+05 F= 0.70560477E+04 EK= 0.68672E+04 SP= 0.00E+00 SK= 0.00E+00
     3430 T=  6021. E= 0.13923429E+05 F= 0.70846548E+04 EK= 0.68388E+04 SP= 0.00E+00 SK= 0.00E+00
     3440 T=  6103. E= 0.13922945E+05 F= 0.69911568E+04 EK= 0.69318E+04 SP= 0.00E+00 SK= 0.00E+00
     3450 T=  6081. E= 0.13923080E+05 F= 0.70161663E+04 EK= 0.69069E+04 SP= 0.00E+00 SK= 0.00E+00
     3460 T=  6097. E= 0.13923007E+05 F= 0.69979822E+04 EK= 0.69250E+04 SP= 0.00E+00 SK= 0.00E+00
     3470 T=  6026. E= 0.13923347E+05 F= 0.70792720E+04 EK= 0.68441E+04 SP= 0.00E+00 SK= 0.00E+00
     3480 T=  6047. E= 0.13923116E+05 F= 0.70550166E+04 EK= 0.68681E+04 SP= 0.00E+00 SK= 0.00E+00
     3490 T=  6085. E= 0.13922940E+05 F= 0.70117618E+04 EK= 0.69112E+04 SP= 0.00E+00 SK= 0.00E+00
     3500 T=  6033. E= 0.13923249E+05 F= 0.70709734E+04 EK= 0.68523E+04 SP= 0.00E+00 SK= 0.00E+00
     3510 T=  6011. E= 0.13923043E+05 F= 0.70960407E+04 EK= 0.68270E+04 SP= 0.00E+00 SK= 0.00E+00
     3520 T=  5964. E= 0.13923266E+05 F= 0.71497724E+04 EK= 0.67735E+04 SP= 0.00E+00 SK= 0.00E+00
     3530 T=  6011. E= 0.13923163E+05 F= 0.70952840E+04 EK= 0.68279E+04 SP= 0.00E+00 SK= 0.00E+00
     3540 T=  6096. E= 0.13922842E+05 F= 0.69988477E+04 EK= 0.69240E+04 SP= 0.00E+00 SK= 0.00E+00
Randomizing velocities, T = 12000.
     3550 T=  6067. E= 0.13854707E+05 F= 0.69638497E+04 EK= 0.68909E+04 SP= 0.00E+00 SK= 0.00E+00
     3560 T=  6031. E= 0.13854533E+05 F= 0.70043402E+04 EK= 0.68502E+04 SP= 0.00E+00 SK= 0.00E+00
     3570 T=  5952. E= 0.13854426E+05 F= 0.70945097E+04 EK= 0.67599E+04 SP= 0.00E+00 SK= 0.00E+00
     3580 T=  5972. E= 0.13854583E+05 F= 0.70712273E+04 EK= 0.67834E+04 SP= 0.00E+00 SK= 0.00E+00
     3590 T=  6080. E= 0.13854429E+05 F= 0.69484744E+04 EK= 0.69060E+04 SP= 0.00E+00 SK= 0.00E+00
     3600 T=  6041. E= 0.13854537E+05 F= 0.69929866E+04 EK= 0.68616E+04 SP= 0.00E+00 SK= 0.00E+00
     3610 T=  6032. E= 0.13854439E+05 F= 0.70029088E+04 EK= 0.68515E+04 SP= 0.00E+00 SK= 0.00E+00
     3620 T=  6003. E= 0.13854408E+05 F= 0.70359247E+04 EK= 0.68185E+04 SP= 0.00E+00 SK= 0.00E+00
     3630 T=  6027. E= 0.13854681E+05 F= 0.70091439E+04 EK= 0.68455E+04 SP= 0.00E+00 SK= 0.00E+00
     3640 T=  6051. E= 0.13854460E+05 F= 0.69820009E+04 EK= 0.68725E+04 SP= 0.00E+00 SK= 0.00E+00
     3650 T=  5996. E= 0.13854537E+05 F= 0.70438526E+04 EK= 0.68107E+04 SP= 0.00E+00 SK= 0.00E+00
     3660 T=  6009. E= 0.13854402E+05 F= 0.70292652E+04 EK= 0.68251E+04 SP= 0.00E+00 SK= 0.00E+00
     3670 T=  6044. E= 0.13854339E+05 F= 0.69893324E+04 EK= 0.68650E+04 SP= 0.00E+00 SK= 0.00E+00
     3680 T=  5982. E= 0.13854562E+05 F= 0.70606479E+04 EK= 0.67939E+04 SP= 0.00E+00 SK= 0.00E+00
     3690 T=  5989. E= 0.13854630E+05 F= 0.70517852E+04 EK= 0.68028E+04 SP= 0.00E+00 SK= 0.00E+00
Randomizing velocities, T = 12000.
     3700 T=  6019. E= 0.13837009E+05 F= 0.70003755E+04 EK= 0.68366E+04 SP= 0.00E+00 SK= 0.00E+00
     3710 T=  6015. E= 0.13837202E+05 F= 0.70050827E+04 EK= 0.68321E+04 SP= 0.00E+00 SK= 0.00E+00
     3720 T=  5982. E= 0.13837272E+05 F= 0.70431893E+04 EK= 0.67941E+04 SP= 0.00E+00 SK= 0.00E+00
     3730 T=  5969. E= 0.13837164E+05 F= 0.70575503E+04 EK= 0.67796E+04 SP= 0.00E+00 SK= 0.00E+00
     3740 T=  5928. E= 0.13837043E+05 F= 0.71043875E+04 EK= 0.67327E+04 SP= 0.00E+00 SK= 0.00E+00
     3750 T=  6022. E= 0.13836964E+05 F= 0.69965228E+04 EK= 0.68404E+04 SP= 0.00E+00 SK= 0.00E+00
     3760 T=  6054. E= 0.13837142E+05 F= 0.69611519E+04 EK= 0.68760E+04 SP= 0.00E+00 SK= 0.00E+00
     3770 T=  6020. E= 0.13837332E+05 F= 0.69994696E+04 EK= 0.68379E+04 SP= 0.00E+00 SK= 0.00E+00
     3780 T=  5995. E= 0.13836919E+05 F= 0.70276895E+04 EK= 0.68092E+04 SP= 0.00E+00 SK= 0.00E+00
     3790 T=  5992. E= 0.13836786E+05 F= 0.70312257E+04 EK= 0.68056E+04 SP= 0.00E+00 SK= 0.00E+00
     3800 T=  5979. E= 0.13837131E+05 F= 0.70455445E+04 EK= 0.67916E+04 SP= 0.00E+00 SK= 0.00E+00
     3810 T=  5979. E= 0.13837093E+05 F= 0.70464695E+04 EK= 0.67906E+04 SP= 0.00E+00 SK= 0.00E+00
     3820 T=  5999. E= 0.13837141E+05 F= 0.70236159E+04 EK= 0.68135E+04 SP= 0.00E+00 SK= 0.00E+00
     3830 T=  6004. E= 0.13837170E+05 F= 0.70175598E+04 EK= 0.68196E+04 SP= 0.00E+00 SK= 0.00E+00
     3840 T=  5965. E= 0.13837075E+05 F= 0.70618473E+04 EK= 0.67752E+04 SP= 0.00E+00 SK= 0.00E+00
     3850 T=  5960. E= 0.13837144E+05 F= 0.70673425E+04 EK= 0.67698E+04 SP= 0.00E+00 SK= 0.00E+00
     3860 T=  5998. E= 0.13836900E+05 F= 0.70244351E+04 EK= 0.68125E+04 SP= 0.00E+00 SK= 0.00E+00
     3870 T=  5946. E= 0.13837136E+05 F= 0.70836473E+04 EK= 0.67535E+04 SP= 0.00E+00 SK= 0.00E+00
     3880 T=  6016. E= 0.13837146E+05 F= 0.70044652E+04 EK= 0.68327E+04 SP= 0.00E+00 SK= 0.00E+00
     3890 T=  5995. E= 0.13837224E+05 F= 0.70281015E+04 EK= 0.68091E+04 SP= 0.00E+00 SK= 0.00E+00
     3900 T=  6028. E= 0.13836926E+05 F= 0.69904578E+04 EK= 0.68465E+04 SP= 0.00E+00 SK= 0.00E+00
     3910 T=  5993. E= 0.13837274E+05 F= 0.70300801E+04 EK= 0.68072E+04 SP= 0.00E+00 SK= 0.00E+00
     3920 T=  6009. E= 0.13836862E+05 F= 0.70117403E+04 EK= 0.68251E+04 SP= 0.00E+00 SK= 0.00E+00
     3930 T=  5931. E= 0.13837098E+05 F= 0.71005455E+04 EK= 0.67366E+04 SP= 0.00E+00 SK= 0.00E+00
     3940 T=  5995. E= 0.13837029E+05 F= 0.70276627E+04 EK= 0.68094E+04 SP= 0.00E+00 SK= 0.00E+00
     3950 T=  6060. E= 0.13836821E+05 F= 0.69532384E+04 EK= 0.68836E+04 SP= 0.00E+00 SK= 0.00E+00
     3960 T=  6018. E= 0.13837140E+05 F= 0.70012887E+04 EK= 0.68359E+04 SP= 0.00E+00 SK= 0.00E+00
     3970 T=  5937. E= 0.13837042E+05 F= 0.70936094E+04 EK= 0.67434E+04 SP= 0.00E+00 SK= 0.00E+00
     3980 T=  5892. E= 0.13837210E+05 F= 0.71448572E+04 EK= 0.66924E+04 SP= 0.00E+00 SK= 0.00E+00
     3990 T=  6014. E= 0.13837137E+05 F= 0.70059850E+04 EK= 0.68312E+04 SP= 0.00E+00 SK= 0.00E+00
     4000 T=  6021. E= 0.13837046E+05 F= 0.69987231E+04 EK= 0.68383E+04 SP= 0.00E+00 SK= 0.00E+00
     4010 T=  5996. E= 0.13837024E+05 F= 0.70268276E+04 EK= 0.68102E+04 SP= 0.00E+00 SK= 0.00E+00
     4020 T=  5979. E= 0.13837048E+05 F= 0.70462513E+04 EK= 0.67908E+04 SP= 0.00E+00 SK= 0.00E+00
     4030 T=  5949. E= 0.13837068E+05 F= 0.70803864E+04 EK= 0.67567E+04 SP= 0.00E+00 SK= 0.00E+00
     4040 T=  5991. E= 0.13836842E+05 F= 0.70325708E+04 EK= 0.68043E+04 SP= 0.00E+00 SK= 0.00E+00
     4050 T=  5984. E= 0.13836992E+05 F= 0.70401512E+04 EK= 0.67968E+04 SP= 0.00E+00 SK= 0.00E+00
     4060 T=  6024. E= 0.13836862E+05 F= 0.69951636E+04 EK= 0.68417E+04 SP= 0.00E+00 SK= 0.00E+00
     4070 T=  5902. E= 0.13837509E+05 F= 0.71343086E+04 EK= 0.67032E+04 SP= 0.00E+00 SK= 0.00E+00
     4080 T=  5968. E= 0.13836973E+05 F= 0.70588885E+04 EK= 0.67781E+04 SP= 0.00E+00 SK= 0.00E+00
     4090 T=  5969. E= 0.13836851E+05 F= 0.70566302E+04 EK= 0.67802E+04 SP= 0.00E+00 SK= 0.00E+00
     4100 T=  5935. E= 0.13837080E+05 F= 0.70955449E+04 EK= 0.67415E+04 SP= 0.00E+00 SK= 0.00E+00
     4110 T=  5968. E= 0.13837353E+05 F= 0.70592759E+04 EK= 0.67781E+04 SP= 0.00E+00 SK= 0.00E+00
     4120 T=  6072. E= 0.13836985E+05 F= 0.69402308E+04 EK= 0.68968E+04 SP= 0.00E+00 SK= 0.00E+00
     4130 T=  6007. E= 0.13837099E+05 F= 0.70143795E+04 EK= 0.68227E+04 SP= 0.00E+00 SK= 0.00E+00
     4140 T=  5996. E= 0.13836987E+05 F= 0.70262561E+04 EK= 0.68107E+04 SP= 0.00E+00 SK= 0.00E+00
     4150 T=  5994. E= 0.13837057E+05 F= 0.70288474E+04 EK= 0.68082E+04 SP= 0.00E+00 SK= 0.00E+00
     4160 T=  5965. E= 0.13837080E+05 F= 0.70620749E+04 EK= 0.67750E+04 SP= 0.00E+00 SK= 0.00E+00
     4170 T=  6032. E= 0.13836875E+05 F= 0.69851582E+04 EK= 0.68517E+04 SP= 0.00E+00 SK= 0.00E+00
     4180 T=  6027. E= 0.13837040E+05 F= 0.69918020E+04 EK= 0.68452E+04 SP= 0.00E+00 SK= 0.00E+00
     4190 T=  6005. E= 0.13836995E+05 F= 0.70167232E+04 EK= 0.68203E+04 SP= 0.00E+00 SK= 0.00E+00
     4200 T=  5966. E= 0.13837217E+05 F= 0.70613451E+04 EK= 0.67759E+04 SP= 0.00E+00 SK= 0.00E+00
     4210 T=  5962. E= 0.13837065E+05 F= 0.70653738E+04 EK= 0.67717E+04 SP= 0.00E+00 SK= 0.00E+00
     4220 T=  6007. E= 0.13837011E+05 F= 0.70144683E+04 EK= 0.68225E+04 SP= 0.00E+00 SK= 0.00E+00
     4230 T=  6009. E= 0.13837122E+05 F= 0.70120123E+04 EK= 0.68251E+04 SP= 0.00E+00 SK= 0.00E+00
     4240 T=  5985. E= 0.13836843E+05 F= 0.70384469E+04 EK= 0.67984E+04 SP= 0.00E+00 SK= 0.00E+00
     4250 T=  5984. E= 0.13836806E+05 F= 0.70400036E+04 EK= 0.67968E+04 SP= 0.00E+00 SK= 0.00E+00
Randomizing velocities, T = 12000.
     4260 T=  5993. E= 0.13837712E+05 F= 0.70302096E+04 EK= 0.68075E+04 SP= 0.00E+00 SK= 0.00E+00
     4270 T=  6038. E= 0.13837642E+05 F= 0.69798516E+04 EK= 0.68578E+04 SP= 0.00E+00 SK= 0.00E+00
     4280 T=  5971. E= 0.13837770E+05 F= 0.70553261E+04 EK= 0.67824E+04 SP= 0.00E+00 SK= 0.00E+00
     4290 T=  5901. E= 0.13838199E+05 F= 0.71359328E+04 EK= 0.67023E+04 SP= 0.00E+00 SK= 0.00E+00
     4300 T=  5960. E= 0.13838111E+05 F= 0.70687056E+04 EK= 0.67694E+04 SP= 0.00E+00 SK= 0.00E+00
     4310 T=  6001. E= 0.13838164E+05 F= 0.70216140E+04 EK= 0.68165E+04 SP= 0.00E+00 SK= 0.00E+00
     4320 T=  6012. E= 0.13838025E+05 F= 0.70091998E+04 EK= 0.68288E+04 SP= 0.00E+00 SK= 0.00E+00
     4330 T=  5965. E= 0.13838133E+05 F= 0.70630088E+04 EK= 0.67751E+04 SP= 0.00E+00 SK= 0.00E+00
     4340 T=  6027. E= 0.13837805E+05 F= 0.69927823E+04 EK= 0.68450E+04 SP= 0.00E+00 SK= 0.00E+00
     4350 T=  5991. E= 0.13838011E+05 F= 0.70328952E+04 EK= 0.68051E+04 SP= 0.00E+00 SK= 0.00E+00
     4360 T=  5982. E= 0.13838009E+05 F= 0.70437443E+04 EK= 0.67943E+04 SP= 0.00E+00 SK= 0.00E+00
     4370 T=  6019. E= 0.13837948E+05 F= 0.70018795E+04 EK= 0.68361E+04 SP= 0.00E+00 SK= 0.00E+00
     4380 T=  6028. E= 0.13837846E+05 F= 0.69908484E+04 EK= 0.68470E+04 SP= 0.00E+00 SK= 0.00E+00
     4390 T=  5930. E= 0.13838434E+05 F= 0.71033493E+04 EK= 0.67351E+04 SP= 0.00E+00 SK= 0.00E+00
     4400 T=  6013. E= 0.13837857E+05 F= 0.70085910E+04 EK= 0.68293E+04 SP= 0.00E+00 SK= 0.00E+00
     4410 T=  6035. E= 0.13837830E+05 F= 0.69827752E+04 EK= 0.68551E+04 SP= 0.00E+00 SK= 0.00E+00
     4420 T=  5975. E= 0.13838286E+05 F= 0.70518656E+04 EK= 0.67864E+04 SP= 0.00E+00 SK= 0.00E+00
     4430 T=  5985. E= 0.13837990E+05 F= 0.70403979E+04 EK= 0.67976E+04 SP= 0.00E+00 SK= 0.00E+00
     4440 T=  5911. E= 0.13838279E+05 F= 0.71240386E+04 EK= 0.67142E+04 SP= 0.00E+00 SK= 0.00E+00
     4450 T=  5991. E= 0.13837957E+05 F= 0.70337656E+04 EK= 0.68042E+04 SP= 0.00E+00 SK= 0.00E+00
     4460 T=  5969. E= 0.13838066E+05 F= 0.70584889E+04 EK= 0.67796E+04 SP= 0.00E+00 SK= 0.00E+00
     4470 T=  5958. E= 0.13837953E+05 F= 0.70713169E+04 EK= 0.67666E+04 SP= 0.00E+00 SK= 0.00E+00
     4480 T=  5988. E= 0.13837820E+05 F= 0.70364317E+04 EK= 0.68014E+04 SP= 0.00E+00 SK= 0.00E+00
     4490 T=  5970. E= 0.13837891E+05 F= 0.70570540E+04 EK= 0.67808E+04 SP= 0.00E+00 SK= 0.00E+00
     4500 T=  6025. E= 0.13837767E+05 F= 0.69948190E+04 EK= 0.68429E+04 SP= 0.00E+00 SK= 0.00E+00
     4510 T=  6036. E= 0.13837862E+05 F= 0.69816000E+04 EK= 0.68563E+04 SP= 0.00E+00 SK= 0.00E+00
     4520 T=  6060. E= 0.13837967E+05 F= 0.69549109E+04 EK= 0.68831E+04 SP= 0.00E+00 SK= 0.00E+00
     4530 T=  5990. E= 0.13837842E+05 F= 0.70348392E+04 EK= 0.68030E+04 SP= 0.00E+00 SK= 0.00E+00
     4540 T=  5921. E= 0.13838193E+05 F= 0.71135108E+04 EK= 0.67247E+04 SP= 0.00E+00 SK= 0.00E+00
     4550 T=  6070. E= 0.13838030E+05 F= 0.69434212E+04 EK= 0.68946E+04 SP= 0.00E+00 SK= 0.00E+00
     4560 T=  6096. E= 0.13837805E+05 F= 0.69133509E+04 EK= 0.69245E+04 SP= 0.00E+00 SK= 0.00E+00
     4570 T=  5958. E= 0.13837898E+05 F= 0.70709950E+04 EK= 0.67669E+04 SP= 0.00E+00 SK= 0.00E+00
     4580 T=  5991. E= 0.13837862E+05 F= 0.70335478E+04 EK= 0.68043E+04 SP= 0.00E+00 SK= 0.00E+00
     4590 T=  6033. E= 0.13838031E+05 F= 0.69858249E+04 EK= 0.68522E+04 SP= 0.00E+00 SK= 0.00E+00
     4600 T=  6066. E= 0.13837841E+05 F= 0.69481147E+04 EK= 0.68897E+04 SP= 0.00E+00 SK= 0.00E+00
     4610 T=  6033. E= 0.13837978E+05 F= 0.69858369E+04 EK= 0.68521E+04 SP= 0.00E+00 SK= 0.00E+00
     4620 T=  5987. E= 0.13837911E+05 F= 0.70376769E+04 EK= 0.68002E+04 SP= 0.00E+00 SK= 0.00E+00
     4630 T=  5986. E= 0.13837975E+05 F= 0.70390269E+04 EK= 0.67989E+04 SP= 0.00E+00 SK= 0.00E+00
     4640 T=  6004. E= 0.13838019E+05 F= 0.70183364E+04 EK= 0.68197E+04 SP= 0.00E+00 SK= 0.00E+00
     4650 T=  6023. E= 0.13837811E+05 F= 0.69967970E+04 EK= 0.68410E+04 SP= 0.00E+00 SK= 0.00E+00
     4660 T=  5885. E= 0.13838189E+05 F= 0.71543743E+04 EK= 0.66838E+04 SP= 0.00E+00 SK= 0.00E+00
     4670 T=  5972. E= 0.13838021E+05 F= 0.70543793E+04 EK= 0.67836E+04 SP= 0.00E+00 SK= 0.00E+00
     4680 T=  6026. E= 0.13837794E+05 F= 0.69936344E+04 EK= 0.68442E+04 SP= 0.00E+00 SK= 0.00E+00
     4690 T=  5963. E= 0.13838115E+05 F= 0.70655964E+04 EK= 0.67725E+04 SP= 0.00E+00 SK= 0.00E+00
     4700 T=  5956. E= 0.13837963E+05 F= 0.70727425E+04 EK= 0.67652E+04 SP= 0.00E+00 SK= 0.00E+00
     4710 T=  5907. E= 0.13838215E+05 F= 0.71289283E+04 EK= 0.67093E+04 SP= 0.00E+00 SK= 0.00E+00
     4720 T=  6000. E= 0.13837870E+05 F= 0.70234634E+04 EK= 0.68144E+04 SP= 0.00E+00 SK= 0.00E+00
Randomizing velocities, T = 12000.
     4730 T=  6037. E= 0.13794500E+05 F= 0.69380363E+04 EK= 0.68565E+04 SP= 0.00E+00 SK= 0.00E+00
     4740 T=  5976. E= 0.13795101E+05 F= 0.70072527E+04 EK= 0.67878E+04 SP= 0.00E+00 SK= 0.00E+00
     4750 T=  5975. E= 0.13794695E+05 F= 0.70077275E+04 EK= 0.67870E+04 SP= 0.00E+00 SK= 0.00E+00
     4760 T=  5964. E= 0.13794983E+05 F= 0.70206414E+04 EK= 0.67743E+04 SP= 0.00E+00 SK= 0.00E+00
     4770 T=  5973. E= 0.13794858E+05 F= 0.70103955E+04 EK= 0.67845E+04 SP= 0.00E+00 SK= 0.00E+00
     4780 T=  5963. E= 0.13794909E+05 F= 0.70226116E+04 EK= 0.67723E+04 SP= 0.00E+00 SK= 0.00E+00
     4790 T=  6011. E= 0.13794851E+05 F= 0.69675275E+04 EK= 0.68273E+04 SP= 0.00E+00 SK= 0.00E+00
     4800 T=  5994. E= 0.13794879E+05 F= 0.69868971E+04 EK= 0.68080E+04 SP= 0.00E+00 SK= 0.00E+00
     4810 T=  6008. E= 0.13794734E+05 F= 0.69702802E+04 EK= 0.68245E+04 SP= 0.00E+00 SK= 0.00E+00
     4820 T=  5958. E= 0.13794713E+05 F= 0.70277691E+04 EK= 0.67669E+04 SP= 0.00E+00 SK= 0.00E+00
     4830 T=  5994. E= 0.13794613E+05 F= 0.69865869E+04 EK= 0.68080E+04 SP= 0.00E+00 SK= 0.00E+00
     4840 T=  5986. E= 0.13794760E+05 F= 0.69959895E+04 EK= 0.67988E+04 SP= 0.00E+00 SK= 0.00E+00
     4850 T=  5941. E= 0.13794649E+05 F= 0.70469919E+04 EK= 0.67477E+04 SP= 0.00E+00 SK= 0.00E+00
     4860 T=  5909. E= 0.13795013E+05 F= 0.70832954E+04 EK= 0.67117E+04 SP= 0.00E+00 SK= 0.00E+00
     4870 T=  6023. E= 0.13794715E+05 F= 0.69535910E+04 EK= 0.68411E+04 SP= 0.00E+00 SK= 0.00E+00
Randomizing velocities, T = 12000.
     4880 T=  5925. E= 0.13767080E+05 F= 0.70374761E+04 EK= 0.67296E+04 SP= 0.00E+00 SK= 0.00E+00
Randomizing velocities, T = 12000.
     4890 T=  6086. E= 0.13784972E+05 F= 0.68718459E+04 EK= 0.69131E+04 SP= 0.00E+00 SK= 0.00E+00
     4900 T=  6024. E= 0.13785213E+05 F= 0.69428035E+04 EK= 0.68424E+04 SP= 0.00E+00 SK= 0.00E+00
     4910 T=  5935. E= 0.13785359E+05 F= 0.70437441E+04 EK= 0.67416E+04 SP= 0.00E+00 SK= 0.00E+00
     4920 T=  5908. E= 0.13785484E+05 F= 0.70748822E+04 EK= 0.67106E+04 SP= 0.00E+00 SK= 0.00E+00
     4930 T=  5917. E= 0.13785515E+05 F= 0.70645218E+04 EK= 0.67210E+04 SP= 0.00E+00 SK= 0.00E+00
     4940 T=  5981. E= 0.13785092E+05 F= 0.69913258E+04 EK= 0.67938E+04 SP= 0.00E+00 SK= 0.00E+00
     4950 T=  5979. E= 0.13785126E+05 F= 0.69944560E+04 EK= 0.67907E+04 SP= 0.00E+00 SK= 0.00E+00
     4960 T=  6011. E= 0.13785015E+05 F= 0.69573918E+04 EK= 0.68276E+04 SP= 0.00E+00 SK= 0.00E+00
     4970 T=  5964. E= 0.13785277E+05 F= 0.70108920E+04 EK= 0.67744E+04 SP= 0.00E+00 SK= 0.00E+00
     4980 T=  5900. E= 0.13785338E+05 F= 0.70838717E+04 EK= 0.67015E+04 SP= 0.00E+00 SK= 0.00E+00
     4990 T=  5948. E= 0.13785116E+05 F= 0.70295915E+04 EK= 0.67555E+04 SP= 0.00E+00 SK= 0.00E+00
Rc and Rl:   5.500000  7.500000
Rc and Rl:   5.500000  7.500000

Average number of steps between two list updates:  12.20
Average number of atoms in the shell:     0.01

Average number of steps between two list updates:  12.20
Average number of atoms in the shell:     0.01
Rc and Rl:   5.500000  7.500000
Rc and Rl:   5.500000  7.500000

Rc and Rl:   5.500000  7.500000
Rc and Rl:   5.500000  7.500000

Average number of steps between two list updates:  12.20
Average number of atoms in the shell:     0.01

Average number of steps between two list updates:  12.20
Average number of atoms in the shell:     0.01
Rc and Rl:   5.500000  7.500000
Rc and Rl:   5.500000  7.500000

Average number of steps between two list updates:  12.20
Average number of atoms in the shell:     0.01

Average number of steps between two list updates:  12.20
Average number of atoms in the shell:     0.01
Rc and Rl:   5.500000  7.500000
Rc and Rl:   5.500000  7.500000

Average number of steps between two list updates:  12.20
Average number of atoms in the shell:     0.01

Average number of steps between two list updates:  12.20
Average number of atoms in the shell:     0.01
Average number of steps between two list updates:  12.20
Average number of atoms in the shell:     0.01

Average number of steps between two list updates:  12.20
Average number of atoms in the shell:     0.01
Rc and Rl:   5.500000  7.500000
Rc and Rl:   5.500000  7.500000

Rc and Rl:   5.500000  7.500000
Rc and Rl:   5.500000  7.500000

Rc and Rl:   5.500000  7.500000
Rc and Rl:   5.500000  7.500000

Average number of steps between two list updates:  12.20
Average number of atoms in the shell:     0.01

Average number of steps between two list updates:  12.20
Average number of atoms in the shell:     0.01
Average number of steps between two list updates:  12.20
Average number of atoms in the shell:     0.01

Average number of steps between two list updates:  12.20
Average number of atoms in the shell:     0.01
Rc and Rl:   5.500000  7.500000
Rc and Rl:   5.500000  7.500000

Average number of steps between two list updates:  12.20
Average number of atoms in the shell:     0.01

Average number of steps between two list updates:  12.20
Average number of atoms in the shell:     0.01
Rc and Rl:   5.500000  7.500000
Rc and Rl:   5.500000  7.500000

Rc and Rl:   5.500000  7.500000
Rc and Rl:   5.500000  7.500000

Average number of steps between two list updates:  12.20
Average number of atoms in the shell:     0.01

Average number of steps between two list updates:  12.20
Average number of atoms in the shell:     0.01
Rc and Rl:   5.500000  7.500000
Rc and Rl:   5.500000  7.500000

Rc and Rl:   5.500000  7.500000
Rc and Rl:   5.500000  7.500000

Average number of steps between two list updates:  12.20
Average number of atoms in the shell:     0.01

Average number of steps between two list updates:  12.20
Average number of atoms in the shell:     0.01
Average number of steps between two list updates:  12.20
Average number of atoms in the shell:     0.01

Average number of steps between two list updates:  12.20
Average number of atoms in the shell:     0.01
Rc and Rl:   5.500000  7.500000
Rc and Rl:   5.500000  7.500000

Rc and Rl:   5.500000  7.500000
Rc and Rl:   5.500000  7.500000

Rc and Rl:   5.500000  7.500000
Rc and Rl:   5.500000  7.500000

Average number of steps between two list updates:  12.20
Average number of atoms in the shell:     0.01

Average number of steps between two list updates:  12.20
Average number of atoms in the shell:     0.01
Average number of steps between two list updates:  12.20
Average number of atoms in the shell:     0.01

Average number of steps between two list updates:  12.20
Average number of atoms in the shell:     0.01
Average number of steps between two list updates:  12.20
Average number of atoms in the shell:     0.01

Average number of steps between two list updates:  12.20
Average number of atoms in the shell:     0.01
Average number of steps between two list updates:  12.20
Average number of atoms in the shell:     0.01

Average number of steps between two list updates:  12.20
Average number of atoms in the shell:     0.01
Rc and Rl:   5.500000  7.500000
Rc and Rl:   5.500000  7.500000

Average number of steps between two list updates:  12.20
Average number of atoms in the shell:     0.01

Average number of steps between two list updates:  12.20
Average number of atoms in the shell:     0.01
Rc and Rl:   5.500000  7.500000
Rc and Rl:   5.500000  7.500000

Average number of steps between two list updates:  12.20
Average number of atoms in the shell:     0.01

Average number of steps between two list updates:  12.20
Average number of atoms in the shell:     0.01
Rc and Rl:   5.500000  7.500000
Rc and Rl:   5.500000  7.500000

Average number of steps between two list updates:  12.20
Average number of atoms in the shell:     0.01

Average number of steps between two list updates:  12.20
Average number of atoms in the shell:     0.01
Average number of steps between two list updates:  12.20
Average number of atoms in the shell:     0.01

Average number of steps between two list updates:  12.20
Average number of atoms in the shell:     0.01
Rc and Rl:   5.500000  7.500000
Rc and Rl:   5.500000  7.500000

Rc and Rl:   5.500000  7.500000
Rc and Rl:   5.500000  7.500000

Average number of steps between two list updates:  12.20
Average number of atoms in the shell:     0.01

Average number of steps between two list updates:  12.20
Average number of atoms in the shell:     0.01
Rc and Rl:   5.500000  7.500000
Rc and Rl:   5.500000  7.500000

Average number of steps between two list updates:  12.20
Average number of atoms in the shell:     0.01

Average number of steps between two list updates:  12.20
Average number of atoms in the shell:     0.01
Rc and Rl:   5.500000  7.500000
Rc and Rl:   5.500000  7.500000

Rc and Rl:   5.500000  7.500000
Rc and Rl:   5.500000  7.500000

Rc and Rl:   5.500000  7.500000
Rc and Rl:   5.500000  7.500000

Average number of steps between two list updates:  12.20
Average number of atoms in the shell:     0.01

Average number of steps between two list updates:  12.20
Average number of atoms in the shell:     0.01
Rc and Rl:   5.500000  7.500000
Rc and Rl:   5.500000  7.500000

Rc and Rl:   5.500000  7.500000
Rc and Rl:   5.500000  7.500000

Rc and Rl:   5.500000  7.500000
Rc and Rl:   5.500000  7.500000

Average number of steps between two list updates:  12.20
Average number of atoms in the shell:     0.01

Average number of steps between two list updates:  12.20
Average number of atoms in the shell:     0.01
Average number of steps between two list updates:  12.20
Average number of atoms in the shell:     0.01

Average number of steps between two list updates:  12.20
Average number of atoms in the shell:     0.01
Rc and Rl:   5.500000  7.500000
Rc and Rl:   5.500000  7.500000

Average number of steps between two list updates:  12.20
Average number of steps between two list updates:  12.20
Average number of atoms in the shell:     0.01

Average number of steps between two list updates:  12.20
Average number of atoms in the shell:     0.01
Average number of steps between two list updates:  12.20
Average number of atoms in the shell:     0.01

Average number of steps between two list updates:  12.20
Average number of atoms in the shell:     0.01
Rc and Rl:   5.500000  7.500000
Rc and Rl:   5.500000  7.500000

Average number of steps between two list updates:  12.20
Average number of atoms in the shell:     0.01

Average number of steps between two list updates:  12.20
Average number of atoms in the shell:     0.01
Rc and Rl:   5.500000  7.500000
Rc and Rl:   5.500000  7.500000

Average number of steps between two list updates:  12.20
Average number of atoms in the shell:     0.01

Average number of steps between two list updates:  12.20
Average number of atoms in the shell:     0.01
Rc and Rl:   5.500000  7.500000
Rc and Rl:   5.500000  7.500000

Average number of steps between two list updates:  12.20
Average number of atoms in the shell:     0.01

Average number of steps between two list updates:  12.20
Average number of atoms in the shell:     0.01
Average number of steps between two list updates:  12.20
Average number of atoms in the shell:     0.01

Average number of steps between two list updates:  12.20
Average number of atoms in the shell:     0.01
Rc and Rl:   5.500000  7.500000
Rc and Rl:   5.500000  7.500000

Average number of steps between two list updates:  12.20
Average number of atoms in the shell:     0.01

Average number of steps between two list updates:  12.20
Average number of atoms in the shell:     0.01
Rc and Rl:   5.500000  7.500000
Rc and Rl:   5.500000  7.500000

Average number of steps between two list updates:  12.20
Average number of atoms in the shell:     0.01

Average number of steps between two list updates:  12.20
Average number of atoms in the shell:     0.01
Rc and Rl:   5.500000  7.500000
Rc and Rl:   5.500000  7.500000

Average number of steps between two list updates:  12.20
Average number of atoms in the shell:     0.01

Average number of steps between two list updates:  12.20
Average number of atoms in the shell:     0.01
Rc and Rl:   5.500000  7.500000
Rc and Rl:   5.500000  7.500000

Average number of steps between two list updates:  12.20
Average number of atoms in the shell:     0.01

Average number of steps between two list updates:  12.20
Average number of atoms in the shell:     0.01
Average number of steps between two list updates:  12.20
Average number of atoms in the shell:     0.01

Average number of steps between two list updates:  12.20
Average number of atoms in the shell:     0.01
Rc and Rl:   5.500000  7.500000
Rc and Rl:   5.500000  7.500000

Average number of steps between two list updates:  12.20
Average number of atoms in the shell:     0.01

Average number of steps between two list updates:  12.20
Average number of atoms in the shell:     0.01
Rc and Rl:   5.500000  7.500000
Rc and Rl:   5.500000  7.500000

Average number of steps between two list updates:  12.20
Average number of atoms in the shell:     0.01

Average number of steps between two list updates:  12.20
Average number of atoms in the shell:     0.01
Rc and Rl:   5.500000  7.500000
Rc and Rl:   5.500000  7.500000

Average number of steps between two list updates:  12.20
Average number of atoms in the shell:     0.01

Average number of steps between two list updates:  12.20
Average number of atoms in the shell:     0.01
Average number of atoms in the shell:     0.01

Average number of steps between two list updates:  12.20
Average number of atoms in the shell:     0.01
     5000 T=  5917. E= 0.13785353E+05 F= 0.70643783E+04 EK= 0.67210E+04 SP= 0.00E+00 SK= 0.00E+00
Rc and Rl:   5.500000  7.500000

Average number of steps between two list updates:  12.20
Average number of atoms in the shell:     0.01
