 running on   40 nodes
 distr:  one band on    1 nodes,   40 groups
 md.x 0.99
 POSCAR found :  1 types and     8788 ions
Rc and Rl:   5.500000  7.500000
 TIPO = eam     
 TIPO1 = uknown p
 Using EAM

 EAM parameters: 
 C  =   4.0539  EPS  = 0.0057  A  = 4.3418  M  = 6.782  N  =  7.748  R1 =   5.500000


 ----------------------------------------------------------------------------- 
|                                                                             |
|           W    W    AA    RRRRR   N    N  II  N    N   GGGG   !!!           |
|           W    W   A  A   R    R  NN   N  II  NN   N  G    G  !!!           |
|           W    W  A    A  R    R  N N  N  II  N N  N  G       !!!           |
|           W WW W  AAAAAA  RRRRR   N  N N  II  N  N N  G  GGG   !            |
|           WW  WW  A    A  R   R   N   NN  II  N   NN  G    G                |
|           W    W  A    A  R    R  N    N  II  N    N   GGGG   !!!           |
|                                                                             |
|      VASP found  26361 degrees of freedom                                   |
|      the temperature will equal 2*E(kin)/ (degrees of freedom)              |
|      this differs from previous releases, where T was 2*E(kin)/(3 NIONS).   |
|      The new definition is more consistent                                  |
|                                                                             |
 ----------------------------------------------------------------------------- 

 Random init:       19315       26886
 Random init:       19315       26886
 Random init:       19315       26886
 Random init:       19315       26886
 Random init:       19315       26886
 Random init:       19315       26886
 Random init:       19315       26886
 Random init:       19315       26886
 Random init:       19315       26886
 Random init:       19315       26886
 Random init:       19315       26886
 Random init:       19315       26886
 Random init:       19315       26886
 Random init:       19315       26886
 Random init:       19315       26886
 Random init:       19315       26886
 Random init:       19315       26886
 Random init:       19315       26886
 Random init:       19315       26886
 Random init:       19315       26886
 Random init:       19315       26886
 Random init:       19315       26886
 Random init:       19315       26886
 Random init:       19315       26886
 Random init:       19315       26886
 Random init:       19315       26886
 Random init:       19315       26886
 Random init:       19315       26886
 Random init:       19315       26886
 Random init:       19315       26886
 Random init:       19315       26886
 Random init:       19315       26886
 Random init:       19315       26886
 Random init:       19315       26886
 Random init:       19315       26886
 Random init:       19315       26886
 Random init:       19315       26886
 Random init:       19315       26886
 Random init:       19315       26886
 Random init:       19315       26886
 alloco spazio per displ
       10 T=  5557. E= 0.99933393E+04 F= 0.36812193E+04 EK= 0.63121E+04 SP= 0.00E+00 SK= 0.00E+00
       20 T=  4562. E= 0.99943222E+04 F= 0.48127905E+04 EK= 0.51815E+04 SP= 0.00E+00 SK= 0.00E+00
       30 T=  4294. E= 0.99938360E+04 F= 0.51164987E+04 EK= 0.48773E+04 SP= 0.00E+00 SK= 0.00E+00
       40 T=  4377. E= 0.99935748E+04 F= 0.50216953E+04 EK= 0.49719E+04 SP= 0.00E+00 SK= 0.00E+00
       50 T=  4396. E= 0.99937080E+04 F= 0.50011143E+04 EK= 0.49926E+04 SP= 0.00E+00 SK= 0.00E+00
       60 T=  4383. E= 0.99937178E+04 F= 0.50152999E+04 EK= 0.49784E+04 SP= 0.00E+00 SK= 0.00E+00
Randomizing velocities, T = 12000.
       70 T=  6060. E= 0.11951625E+05 F= 0.50684086E+04 EK= 0.68832E+04 SP= 0.00E+00 SK= 0.00E+00
       80 T=  5735. E= 0.11951940E+05 F= 0.54384689E+04 EK= 0.65135E+04 SP= 0.00E+00 SK= 0.00E+00
       90 T=  5637. E= 0.11951740E+05 F= 0.55488268E+04 EK= 0.64029E+04 SP= 0.00E+00 SK= 0.00E+00
      100 T=  5685. E= 0.11951727E+05 F= 0.54947931E+04 EK= 0.64569E+04 SP= 0.00E+00 SK= 0.00E+00
      110 T=  5756. E= 0.11951838E+05 F= 0.54142338E+04 EK= 0.65376E+04 SP= 0.00E+00 SK= 0.00E+00
      120 T=  5763. E= 0.11951658E+05 F= 0.54061642E+04 EK= 0.65455E+04 SP= 0.00E+00 SK= 0.00E+00
      130 T=  5657. E= 0.11951829E+05 F= 0.55266650E+04 EK= 0.64252E+04 SP= 0.00E+00 SK= 0.00E+00
      140 T=  5704. E= 0.11951756E+05 F= 0.54728960E+04 EK= 0.64789E+04 SP= 0.00E+00 SK= 0.00E+00
      150 T=  5685. E= 0.11951809E+05 F= 0.54950267E+04 EK= 0.64568E+04 SP= 0.00E+00 SK= 0.00E+00
      160 T=  5740. E= 0.11951341E+05 F= 0.54319966E+04 EK= 0.65193E+04 SP= 0.00E+00 SK= 0.00E+00
      170 T=  5695. E= 0.11951627E+05 F= 0.54827294E+04 EK= 0.64689E+04 SP= 0.00E+00 SK= 0.00E+00
      180 T=  5670. E= 0.11951827E+05 F= 0.55113653E+04 EK= 0.64405E+04 SP= 0.00E+00 SK= 0.00E+00
      190 T=  5699. E= 0.11951762E+05 F= 0.54782781E+04 EK= 0.64735E+04 SP= 0.00E+00 SK= 0.00E+00
Randomizing velocities, T = 12000.
      200 T=  5977. E= 0.12273205E+05 F= 0.54849370E+04 EK= 0.67883E+04 SP= 0.00E+00 SK= 0.00E+00
      210 T=  5884. E= 0.12273468E+05 F= 0.55905201E+04 EK= 0.66829E+04 SP= 0.00E+00 SK= 0.00E+00
      220 T=  5920. E= 0.12273256E+05 F= 0.55493222E+04 EK= 0.67239E+04 SP= 0.00E+00 SK= 0.00E+00
      230 T=  5955. E= 0.12273194E+05 F= 0.55096083E+04 EK= 0.67636E+04 SP= 0.00E+00 SK= 0.00E+00
      240 T=  5958. E= 0.12273185E+05 F= 0.55060593E+04 EK= 0.67671E+04 SP= 0.00E+00 SK= 0.00E+00
      250 T=  5903. E= 0.12273316E+05 F= 0.55687524E+04 EK= 0.67046E+04 SP= 0.00E+00 SK= 0.00E+00
      260 T=  5919. E= 0.12273299E+05 F= 0.55504039E+04 EK= 0.67229E+04 SP= 0.00E+00 SK= 0.00E+00
      270 T=  5883. E= 0.12273318E+05 F= 0.55913586E+04 EK= 0.66820E+04 SP= 0.00E+00 SK= 0.00E+00
      280 T=  5901. E= 0.12273243E+05 F= 0.55703978E+04 EK= 0.67028E+04 SP= 0.00E+00 SK= 0.00E+00
      290 T=  5912. E= 0.12273196E+05 F= 0.55580986E+04 EK= 0.67151E+04 SP= 0.00E+00 SK= 0.00E+00
      300 T=  5894. E= 0.12273433E+05 F= 0.55791323E+04 EK= 0.66943E+04 SP= 0.00E+00 SK= 0.00E+00
      310 T=  5934. E= 0.12273243E+05 F= 0.55336613E+04 EK= 0.67396E+04 SP= 0.00E+00 SK= 0.00E+00
      320 T=  5863. E= 0.12273542E+05 F= 0.56143975E+04 EK= 0.66591E+04 SP= 0.00E+00 SK= 0.00E+00
      330 T=  5931. E= 0.12273185E+05 F= 0.55361601E+04 EK= 0.67370E+04 SP= 0.00E+00 SK= 0.00E+00
      340 T=  5892. E= 0.12273296E+05 F= 0.55813495E+04 EK= 0.66919E+04 SP= 0.00E+00 SK= 0.00E+00
      350 T=  5899. E= 0.12273069E+05 F= 0.55724670E+04 EK= 0.67006E+04 SP= 0.00E+00 SK= 0.00E+00
      360 T=  5853. E= 0.12273620E+05 F= 0.56252206E+04 EK= 0.66484E+04 SP= 0.00E+00 SK= 0.00E+00
      370 T=  5918. E= 0.12273320E+05 F= 0.55515800E+04 EK= 0.67217E+04 SP= 0.00E+00 SK= 0.00E+00
      380 T=  5872. E= 0.12273367E+05 F= 0.56034114E+04 EK= 0.66700E+04 SP= 0.00E+00 SK= 0.00E+00
      390 T=  5869. E= 0.12273247E+05 F= 0.56074849E+04 EK= 0.66658E+04 SP= 0.00E+00 SK= 0.00E+00
      400 T=  5859. E= 0.12273119E+05 F= 0.56182858E+04 EK= 0.66548E+04 SP= 0.00E+00 SK= 0.00E+00
      410 T=  5860. E= 0.12273321E+05 F= 0.56174668E+04 EK= 0.66559E+04 SP= 0.00E+00 SK= 0.00E+00
      420 T=  5874. E= 0.12273311E+05 F= 0.56020006E+04 EK= 0.66713E+04 SP= 0.00E+00 SK= 0.00E+00
      430 T=  5894. E= 0.12273100E+05 F= 0.55780665E+04 EK= 0.66950E+04 SP= 0.00E+00 SK= 0.00E+00
      440 T=  5894. E= 0.12273374E+05 F= 0.55793672E+04 EK= 0.66940E+04 SP= 0.00E+00 SK= 0.00E+00
      450 T=  5951. E= 0.12273069E+05 F= 0.55133824E+04 EK= 0.67597E+04 SP= 0.00E+00 SK= 0.00E+00
      460 T=  5914. E= 0.12273290E+05 F= 0.55561480E+04 EK= 0.67171E+04 SP= 0.00E+00 SK= 0.00E+00
Randomizing velocities, T = 12000.
      470 T=  6111. E= 0.12504738E+05 F= 0.55637484E+04 EK= 0.69410E+04 SP= 0.00E+00 SK= 0.00E+00
      480 T=  6129. E= 0.12504997E+05 F= 0.55430375E+04 EK= 0.69620E+04 SP= 0.00E+00 SK= 0.00E+00
      490 T=  6102. E= 0.12504902E+05 F= 0.55744041E+04 EK= 0.69305E+04 SP= 0.00E+00 SK= 0.00E+00
      500 T=  6045. E= 0.12504892E+05 F= 0.56384537E+04 EK= 0.68664E+04 SP= 0.00E+00 SK= 0.00E+00
      510 T=  6007. E= 0.12504939E+05 F= 0.56821229E+04 EK= 0.68228E+04 SP= 0.00E+00 SK= 0.00E+00
      520 T=  6038. E= 0.12504750E+05 F= 0.56470363E+04 EK= 0.68577E+04 SP= 0.00E+00 SK= 0.00E+00
      530 T=  6030. E= 0.12504861E+05 F= 0.56558080E+04 EK= 0.68491E+04 SP= 0.00E+00 SK= 0.00E+00
      540 T=  5999. E= 0.12504975E+05 F= 0.56910467E+04 EK= 0.68139E+04 SP= 0.00E+00 SK= 0.00E+00
      550 T=  6013. E= 0.12504963E+05 F= 0.56757450E+04 EK= 0.68292E+04 SP= 0.00E+00 SK= 0.00E+00
      560 T=  6073. E= 0.12504876E+05 F= 0.56070829E+04 EK= 0.68978E+04 SP= 0.00E+00 SK= 0.00E+00
      570 T=  6018. E= 0.12505159E+05 F= 0.56692924E+04 EK= 0.68359E+04 SP= 0.00E+00 SK= 0.00E+00
      580 T=  6068. E= 0.12504752E+05 F= 0.56124283E+04 EK= 0.68923E+04 SP= 0.00E+00 SK= 0.00E+00
      590 T=  5989. E= 0.12505179E+05 F= 0.57029254E+04 EK= 0.68023E+04 SP= 0.00E+00 SK= 0.00E+00
      600 T=  6057. E= 0.12504928E+05 F= 0.56248279E+04 EK= 0.68801E+04 SP= 0.00E+00 SK= 0.00E+00
      610 T=  6101. E= 0.12505051E+05 F= 0.55759559E+04 EK= 0.69291E+04 SP= 0.00E+00 SK= 0.00E+00
      620 T=  6106. E= 0.12504728E+05 F= 0.55699548E+04 EK= 0.69348E+04 SP= 0.00E+00 SK= 0.00E+00
      630 T=  6025. E= 0.12504939E+05 F= 0.56616555E+04 EK= 0.68433E+04 SP= 0.00E+00 SK= 0.00E+00
      640 T=  6053. E= 0.12504624E+05 F= 0.56299308E+04 EK= 0.68747E+04 SP= 0.00E+00 SK= 0.00E+00
      650 T=  5995. E= 0.12504960E+05 F= 0.56961508E+04 EK= 0.68088E+04 SP= 0.00E+00 SK= 0.00E+00
      660 T=  6068. E= 0.12504868E+05 F= 0.56121931E+04 EK= 0.68927E+04 SP= 0.00E+00 SK= 0.00E+00
      670 T=  6032. E= 0.12504921E+05 F= 0.56534869E+04 EK= 0.68514E+04 SP= 0.00E+00 SK= 0.00E+00
      680 T=  5999. E= 0.12504747E+05 F= 0.56906695E+04 EK= 0.68141E+04 SP= 0.00E+00 SK= 0.00E+00
      690 T=  6040. E= 0.12504836E+05 F= 0.56443766E+04 EK= 0.68605E+04 SP= 0.00E+00 SK= 0.00E+00
      700 T=  6075. E= 0.12504703E+05 F= 0.56042550E+04 EK= 0.69004E+04 SP= 0.00E+00 SK= 0.00E+00
      710 T=  6065. E= 0.12504827E+05 F= 0.56159199E+04 EK= 0.68889E+04 SP= 0.00E+00 SK= 0.00E+00
      720 T=  6046. E= 0.12504767E+05 F= 0.56372379E+04 EK= 0.68675E+04 SP= 0.00E+00 SK= 0.00E+00
      730 T=  5958. E= 0.12505025E+05 F= 0.57378564E+04 EK= 0.67672E+04 SP= 0.00E+00 SK= 0.00E+00
      740 T=  5991. E= 0.12504922E+05 F= 0.57003409E+04 EK= 0.68046E+04 SP= 0.00E+00 SK= 0.00E+00
      750 T=  5985. E= 0.12505082E+05 F= 0.57075054E+04 EK= 0.67976E+04 SP= 0.00E+00 SK= 0.00E+00
      760 T=  6093. E= 0.12504595E+05 F= 0.55843358E+04 EK= 0.69203E+04 SP= 0.00E+00 SK= 0.00E+00
      770 T=  6043. E= 0.12505020E+05 F= 0.56417188E+04 EK= 0.68633E+04 SP= 0.00E+00 SK= 0.00E+00
      780 T=  6017. E= 0.12505008E+05 F= 0.56702706E+04 EK= 0.68347E+04 SP= 0.00E+00 SK= 0.00E+00
      790 T=  6009. E= 0.12504886E+05 F= 0.56798416E+04 EK= 0.68250E+04 SP= 0.00E+00 SK= 0.00E+00
      800 T=  6023. E= 0.12504867E+05 F= 0.56633604E+04 EK= 0.68415E+04 SP= 0.00E+00 SK= 0.00E+00
      810 T=  6033. E= 0.12504999E+05 F= 0.56522396E+04 EK= 0.68528E+04 SP= 0.00E+00 SK= 0.00E+00
      820 T=  6015. E= 0.12505101E+05 F= 0.56736862E+04 EK= 0.68314E+04 SP= 0.00E+00 SK= 0.00E+00
      830 T=  6078. E= 0.12504858E+05 F= 0.56014114E+04 EK= 0.69034E+04 SP= 0.00E+00 SK= 0.00E+00
      840 T=  6069. E= 0.12504693E+05 F= 0.56109671E+04 EK= 0.68937E+04 SP= 0.00E+00 SK= 0.00E+00
      850 T=  5975. E= 0.12504967E+05 F= 0.57184949E+04 EK= 0.67865E+04 SP= 0.00E+00 SK= 0.00E+00
      860 T=  6027. E= 0.12504988E+05 F= 0.56595770E+04 EK= 0.68454E+04 SP= 0.00E+00 SK= 0.00E+00
      870 T=  6008. E= 0.12504918E+05 F= 0.56812046E+04 EK= 0.68237E+04 SP= 0.00E+00 SK= 0.00E+00
      880 T=  6015. E= 0.12504958E+05 F= 0.56734314E+04 EK= 0.68315E+04 SP= 0.00E+00 SK= 0.00E+00
      890 T=  6086. E= 0.12504868E+05 F= 0.55928269E+04 EK= 0.69120E+04 SP= 0.00E+00 SK= 0.00E+00
      900 T=  6046. E= 0.12504887E+05 F= 0.56379859E+04 EK= 0.68669E+04 SP= 0.00E+00 SK= 0.00E+00
      910 T=  5996. E= 0.12504750E+05 F= 0.56948740E+04 EK= 0.68099E+04 SP= 0.00E+00 SK= 0.00E+00
      920 T=  6013. E= 0.12504792E+05 F= 0.56745984E+04 EK= 0.68302E+04 SP= 0.00E+00 SK= 0.00E+00
      930 T=  6075. E= 0.12504856E+05 F= 0.56044163E+04 EK= 0.69004E+04 SP= 0.00E+00 SK= 0.00E+00
      940 T=  6079. E= 0.12504801E+05 F= 0.56000888E+04 EK= 0.69047E+04 SP= 0.00E+00 SK= 0.00E+00
      950 T=  6042. E= 0.12504984E+05 F= 0.56421879E+04 EK= 0.68628E+04 SP= 0.00E+00 SK= 0.00E+00
      960 T=  6061. E= 0.12504874E+05 F= 0.56212152E+04 EK= 0.68837E+04 SP= 0.00E+00 SK= 0.00E+00
      970 T=  6045. E= 0.12504931E+05 F= 0.56387749E+04 EK= 0.68662E+04 SP= 0.00E+00 SK= 0.00E+00
      980 T=  6092. E= 0.12504673E+05 F= 0.55857054E+04 EK= 0.69190E+04 SP= 0.00E+00 SK= 0.00E+00
      990 T=  6032. E= 0.12505150E+05 F= 0.56543904E+04 EK= 0.68508E+04 SP= 0.00E+00 SK= 0.00E+00
     1000 T=  6088. E= 0.12504676E+05 F= 0.55899828E+04 EK= 0.69147E+04 SP= 0.00E+00 SK= 0.00E+00
     1010 T=  6040. E= 0.12504760E+05 F= 0.56448118E+04 EK= 0.68599E+04 SP= 0.00E+00 SK= 0.00E+00
     1020 T=  6008. E= 0.12504864E+05 F= 0.56811409E+04 EK= 0.68237E+04 SP= 0.00E+00 SK= 0.00E+00
     1030 T=  6030. E= 0.12504739E+05 F= 0.56558194E+04 EK= 0.68489E+04 SP= 0.00E+00 SK= 0.00E+00
     1040 T=  6005. E= 0.12504854E+05 F= 0.56840716E+04 EK= 0.68208E+04 SP= 0.00E+00 SK= 0.00E+00
     1050 T=  5968. E= 0.12504832E+05 F= 0.57264590E+04 EK= 0.67784E+04 SP= 0.00E+00 SK= 0.00E+00
     1060 T=  6031. E= 0.12504910E+05 F= 0.56542993E+04 EK= 0.68506E+04 SP= 0.00E+00 SK= 0.00E+00
     1070 T=  6060. E= 0.12504844E+05 F= 0.56221443E+04 EK= 0.68827E+04 SP= 0.00E+00 SK= 0.00E+00
     1080 T=  6013. E= 0.12504851E+05 F= 0.56748567E+04 EK= 0.68300E+04 SP= 0.00E+00 SK= 0.00E+00
     1090 T=  6038. E= 0.12504864E+05 F= 0.56466364E+04 EK= 0.68582E+04 SP= 0.00E+00 SK= 0.00E+00
     1100 T=  6007. E= 0.12504937E+05 F= 0.56815378E+04 EK= 0.68234E+04 SP= 0.00E+00 SK= 0.00E+00
     1110 T=  6049. E= 0.12504888E+05 F= 0.56347672E+04 EK= 0.68701E+04 SP= 0.00E+00 SK= 0.00E+00
     1120 T=  6067. E= 0.12504829E+05 F= 0.56140839E+04 EK= 0.68907E+04 SP= 0.00E+00 SK= 0.00E+00
     1130 T=  6049. E= 0.12504912E+05 F= 0.56342792E+04 EK= 0.68706E+04 SP= 0.00E+00 SK= 0.00E+00
     1140 T=  6086. E= 0.12504970E+05 F= 0.55923624E+04 EK= 0.69126E+04 SP= 0.00E+00 SK= 0.00E+00
     1150 T=  6079. E= 0.12504948E+05 F= 0.56002099E+04 EK= 0.69047E+04 SP= 0.00E+00 SK= 0.00E+00
     1160 T=  6005. E= 0.12504875E+05 F= 0.56845108E+04 EK= 0.68204E+04 SP= 0.00E+00 SK= 0.00E+00
     1170 T=  5988. E= 0.12504898E+05 F= 0.57040730E+04 EK= 0.68008E+04 SP= 0.00E+00 SK= 0.00E+00
     1180 T=  6064. E= 0.12504808E+05 F= 0.56169636E+04 EK= 0.68878E+04 SP= 0.00E+00 SK= 0.00E+00
     1190 T=  6066. E= 0.12504907E+05 F= 0.56155612E+04 EK= 0.68893E+04 SP= 0.00E+00 SK= 0.00E+00
     1200 T=  6029. E= 0.12505008E+05 F= 0.56572430E+04 EK= 0.68478E+04 SP= 0.00E+00 SK= 0.00E+00
Randomizing velocities, T = 12000.
     1210 T=  6105. E= 0.12576347E+05 F= 0.56426729E+04 EK= 0.69337E+04 SP= 0.00E+00 SK= 0.00E+00
     1220 T=  6078. E= 0.12576537E+05 F= 0.56726609E+04 EK= 0.69039E+04 SP= 0.00E+00 SK= 0.00E+00
     1230 T=  6089. E= 0.12576480E+05 F= 0.56607578E+04 EK= 0.69157E+04 SP= 0.00E+00 SK= 0.00E+00
     1240 T=  6083. E= 0.12576562E+05 F= 0.56678992E+04 EK= 0.69087E+04 SP= 0.00E+00 SK= 0.00E+00
     1250 T=  6042. E= 0.12576608E+05 F= 0.57136237E+04 EK= 0.68630E+04 SP= 0.00E+00 SK= 0.00E+00
     1260 T=  6049. E= 0.12576572E+05 F= 0.57063184E+04 EK= 0.68703E+04 SP= 0.00E+00 SK= 0.00E+00
     1270 T=  6087. E= 0.12576404E+05 F= 0.56623446E+04 EK= 0.69141E+04 SP= 0.00E+00 SK= 0.00E+00
     1280 T=  6088. E= 0.12576454E+05 F= 0.56620901E+04 EK= 0.69144E+04 SP= 0.00E+00 SK= 0.00E+00
Randomizing velocities, T = 12000.
     1290 T=  6003. E= 0.12505209E+05 F= 0.56873142E+04 EK= 0.68179E+04 SP= 0.00E+00 SK= 0.00E+00
     1300 T=  6074. E= 0.12505026E+05 F= 0.56059958E+04 EK= 0.68990E+04 SP= 0.00E+00 SK= 0.00E+00
     1310 T=  6003. E= 0.12505318E+05 F= 0.56873324E+04 EK= 0.68180E+04 SP= 0.00E+00 SK= 0.00E+00
     1320 T=  6054. E= 0.12505158E+05 F= 0.56286562E+04 EK= 0.68765E+04 SP= 0.00E+00 SK= 0.00E+00
     1330 T=  6003. E= 0.12505256E+05 F= 0.56872896E+04 EK= 0.68180E+04 SP= 0.00E+00 SK= 0.00E+00
     1340 T=  6050. E= 0.12505032E+05 F= 0.56328642E+04 EK= 0.68722E+04 SP= 0.00E+00 SK= 0.00E+00
     1350 T=  6053. E= 0.12505140E+05 F= 0.56300879E+04 EK= 0.68751E+04 SP= 0.00E+00 SK= 0.00E+00
Randomizing velocities, T = 12000.
     1360 T=  6099. E= 0.12552250E+05 F= 0.56253464E+04 EK= 0.69269E+04 SP= 0.00E+00 SK= 0.00E+00
     1370 T=  6082. E= 0.12552723E+05 F= 0.56444155E+04 EK= 0.69083E+04 SP= 0.00E+00 SK= 0.00E+00
     1380 T=  6095. E= 0.12552690E+05 F= 0.56300328E+04 EK= 0.69227E+04 SP= 0.00E+00 SK= 0.00E+00
     1390 T=  6096. E= 0.12552703E+05 F= 0.56285884E+04 EK= 0.69241E+04 SP= 0.00E+00 SK= 0.00E+00
     1400 T=  6037. E= 0.12552712E+05 F= 0.56962899E+04 EK= 0.68564E+04 SP= 0.00E+00 SK= 0.00E+00
     1410 T=  6071. E= 0.12552546E+05 F= 0.56570208E+04 EK= 0.68955E+04 SP= 0.00E+00 SK= 0.00E+00
     1420 T=  6066. E= 0.12552716E+05 F= 0.56627840E+04 EK= 0.68899E+04 SP= 0.00E+00 SK= 0.00E+00
     1430 T=  6042. E= 0.12552836E+05 F= 0.56900190E+04 EK= 0.68628E+04 SP= 0.00E+00 SK= 0.00E+00
     1440 T=  6090. E= 0.12552427E+05 F= 0.56350198E+04 EK= 0.69174E+04 SP= 0.00E+00 SK= 0.00E+00
     1450 T=  6040. E= 0.12552740E+05 F= 0.56923390E+04 EK= 0.68604E+04 SP= 0.00E+00 SK= 0.00E+00
     1460 T=  6096. E= 0.12552508E+05 F= 0.56284603E+04 EK= 0.69240E+04 SP= 0.00E+00 SK= 0.00E+00
     1470 T=  6075. E= 0.12552573E+05 F= 0.56526579E+04 EK= 0.68999E+04 SP= 0.00E+00 SK= 0.00E+00
     1480 T=  6042. E= 0.12552474E+05 F= 0.56899665E+04 EK= 0.68625E+04 SP= 0.00E+00 SK= 0.00E+00
     1490 T=  6026. E= 0.12552339E+05 F= 0.57083699E+04 EK= 0.68440E+04 SP= 0.00E+00 SK= 0.00E+00
     1500 T=  6002. E= 0.12552609E+05 F= 0.57355878E+04 EK= 0.68170E+04 SP= 0.00E+00 SK= 0.00E+00
     1510 T=  6046. E= 0.12552629E+05 F= 0.56856913E+04 EK= 0.68669E+04 SP= 0.00E+00 SK= 0.00E+00
     1520 T=  6033. E= 0.12552705E+05 F= 0.57008945E+04 EK= 0.68518E+04 SP= 0.00E+00 SK= 0.00E+00
     1530 T=  6041. E= 0.12552603E+05 F= 0.56915888E+04 EK= 0.68610E+04 SP= 0.00E+00 SK= 0.00E+00
     1540 T=  6084. E= 0.12552638E+05 F= 0.56425408E+04 EK= 0.69101E+04 SP= 0.00E+00 SK= 0.00E+00
     1550 T=  6129. E= 0.12552528E+05 F= 0.55906754E+04 EK= 0.69619E+04 SP= 0.00E+00 SK= 0.00E+00
     1560 T=  6118. E= 0.12552542E+05 F= 0.56032020E+04 EK= 0.69493E+04 SP= 0.00E+00 SK= 0.00E+00
     1570 T=  6072. E= 0.12552575E+05 F= 0.56559652E+04 EK= 0.68966E+04 SP= 0.00E+00 SK= 0.00E+00
     1580 T=  6007. E= 0.12552452E+05 F= 0.57291185E+04 EK= 0.68233E+04 SP= 0.00E+00 SK= 0.00E+00
     1590 T=  6043. E= 0.12552531E+05 F= 0.56890589E+04 EK= 0.68635E+04 SP= 0.00E+00 SK= 0.00E+00
     1600 T=  6085. E= 0.12552528E+05 F= 0.56405925E+04 EK= 0.69119E+04 SP= 0.00E+00 SK= 0.00E+00
     1610 T=  6104. E= 0.12552529E+05 F= 0.56196669E+04 EK= 0.69329E+04 SP= 0.00E+00 SK= 0.00E+00
     1620 T=  6137. E= 0.12552306E+05 F= 0.55814374E+04 EK= 0.69709E+04 SP= 0.00E+00 SK= 0.00E+00
     1630 T=  6060. E= 0.12552662E+05 F= 0.56699646E+04 EK= 0.68827E+04 SP= 0.00E+00 SK= 0.00E+00
     1640 T=  6020. E= 0.12552769E+05 F= 0.57154760E+04 EK= 0.68373E+04 SP= 0.00E+00 SK= 0.00E+00
     1650 T=  6105. E= 0.12552653E+05 F= 0.56186609E+04 EK= 0.69340E+04 SP= 0.00E+00 SK= 0.00E+00
     1660 T=  6147. E= 0.12552737E+05 F= 0.55712731E+04 EK= 0.69815E+04 SP= 0.00E+00 SK= 0.00E+00
     1670 T=  6129. E= 0.12552579E+05 F= 0.55910039E+04 EK= 0.69616E+04 SP= 0.00E+00 SK= 0.00E+00
     1680 T=  6070. E= 0.12552817E+05 F= 0.56583019E+04 EK= 0.68945E+04 SP= 0.00E+00 SK= 0.00E+00
     1690 T=  6094. E= 0.12552452E+05 F= 0.56305459E+04 EK= 0.69219E+04 SP= 0.00E+00 SK= 0.00E+00
     1700 T=  6037. E= 0.12552606E+05 F= 0.56959652E+04 EK= 0.68566E+04 SP= 0.00E+00 SK= 0.00E+00
     1710 T=  6061. E= 0.12552697E+05 F= 0.56688595E+04 EK= 0.68838E+04 SP= 0.00E+00 SK= 0.00E+00
     1720 T=  6068. E= 0.12552703E+05 F= 0.56601296E+04 EK= 0.68926E+04 SP= 0.00E+00 SK= 0.00E+00
     1730 T=  6061. E= 0.12552528E+05 F= 0.56684669E+04 EK= 0.68841E+04 SP= 0.00E+00 SK= 0.00E+00
     1740 T=  6063. E= 0.12552523E+05 F= 0.56665757E+04 EK= 0.68859E+04 SP= 0.00E+00 SK= 0.00E+00
     1750 T=  6026. E= 0.12552486E+05 F= 0.57084504E+04 EK= 0.68440E+04 SP= 0.00E+00 SK= 0.00E+00
     1760 T=  6004. E= 0.12552519E+05 F= 0.57326003E+04 EK= 0.68199E+04 SP= 0.00E+00 SK= 0.00E+00
     1770 T=  6043. E= 0.12552622E+05 F= 0.56890380E+04 EK= 0.68636E+04 SP= 0.00E+00 SK= 0.00E+00
     1780 T=  6073. E= 0.12552704E+05 F= 0.56554378E+04 EK= 0.68973E+04 SP= 0.00E+00 SK= 0.00E+00
Randomizing velocities, T = 12000.
     1790 T=  6117. E= 0.12559578E+05 F= 0.56122090E+04 EK= 0.69474E+04 SP= 0.00E+00 SK= 0.00E+00
     1800 T=  6066. E= 0.12559998E+05 F= 0.56698360E+04 EK= 0.68902E+04 SP= 0.00E+00 SK= 0.00E+00
     1810 T=  6049. E= 0.12559811E+05 F= 0.56890979E+04 EK= 0.68707E+04 SP= 0.00E+00 SK= 0.00E+00
     1820 T=  6088. E= 0.12559856E+05 F= 0.56452703E+04 EK= 0.69146E+04 SP= 0.00E+00 SK= 0.00E+00
     1830 T=  6155. E= 0.12559840E+05 F= 0.55683740E+04 EK= 0.69915E+04 SP= 0.00E+00 SK= 0.00E+00
     1840 T=  6092. E= 0.12559886E+05 F= 0.56408911E+04 EK= 0.69190E+04 SP= 0.00E+00 SK= 0.00E+00
     1850 T=  6066. E= 0.12560005E+05 F= 0.56697823E+04 EK= 0.68902E+04 SP= 0.00E+00 SK= 0.00E+00
     1860 T=  6051. E= 0.12560070E+05 F= 0.56873091E+04 EK= 0.68728E+04 SP= 0.00E+00 SK= 0.00E+00
     1870 T=  6057. E= 0.12559943E+05 F= 0.56806580E+04 EK= 0.68793E+04 SP= 0.00E+00 SK= 0.00E+00
     1880 T=  6053. E= 0.12559994E+05 F= 0.56848063E+04 EK= 0.68752E+04 SP= 0.00E+00 SK= 0.00E+00
     1890 T=  6090. E= 0.12559759E+05 F= 0.56429826E+04 EK= 0.69168E+04 SP= 0.00E+00 SK= 0.00E+00
     1900 T=  6061. E= 0.12559721E+05 F= 0.56756987E+04 EK= 0.68840E+04 SP= 0.00E+00 SK= 0.00E+00
     1910 T=  6024. E= 0.12560052E+05 F= 0.57184025E+04 EK= 0.68416E+04 SP= 0.00E+00 SK= 0.00E+00
     1920 T=  6046. E= 0.12559832E+05 F= 0.56928842E+04 EK= 0.68669E+04 SP= 0.00E+00 SK= 0.00E+00
     1930 T=  6009. E= 0.12559916E+05 F= 0.57345998E+04 EK= 0.68253E+04 SP= 0.00E+00 SK= 0.00E+00
     1940 T=  5975. E= 0.12559934E+05 F= 0.57733282E+04 EK= 0.67866E+04 SP= 0.00E+00 SK= 0.00E+00
     1950 T=  6015. E= 0.12559699E+05 F= 0.57273780E+04 EK= 0.68323E+04 SP= 0.00E+00 SK= 0.00E+00
     1960 T=  6064. E= 0.12559761E+05 F= 0.56720778E+04 EK= 0.68877E+04 SP= 0.00E+00 SK= 0.00E+00
     1970 T=  6114. E= 0.12559770E+05 F= 0.56150461E+04 EK= 0.69447E+04 SP= 0.00E+00 SK= 0.00E+00
     1980 T=  6084. E= 0.12559907E+05 F= 0.56498252E+04 EK= 0.69101E+04 SP= 0.00E+00 SK= 0.00E+00
     1990 T=  6069. E= 0.12559774E+05 F= 0.56668170E+04 EK= 0.68930E+04 SP= 0.00E+00 SK= 0.00E+00
     2000 T=  5994. E= 0.12559944E+05 F= 0.57522134E+04 EK= 0.68077E+04 SP= 0.00E+00 SK= 0.00E+00
     2010 T=  5960. E= 0.12559941E+05 F= 0.57905378E+04 EK= 0.67694E+04 SP= 0.00E+00 SK= 0.00E+00
     2020 T=  6014. E= 0.12559760E+05 F= 0.57291977E+04 EK= 0.68306E+04 SP= 0.00E+00 SK= 0.00E+00
     2030 T=  5983. E= 0.12560078E+05 F= 0.57643342E+04 EK= 0.67957E+04 SP= 0.00E+00 SK= 0.00E+00
     2040 T=  6037. E= 0.12559972E+05 F= 0.57026652E+04 EK= 0.68573E+04 SP= 0.00E+00 SK= 0.00E+00
     2050 T=  6086. E= 0.12559760E+05 F= 0.56474607E+04 EK= 0.69123E+04 SP= 0.00E+00 SK= 0.00E+00
     2060 T=  6046. E= 0.12559816E+05 F= 0.56924799E+04 EK= 0.68673E+04 SP= 0.00E+00 SK= 0.00E+00
     2070 T=  6023. E= 0.12559951E+05 F= 0.57193934E+04 EK= 0.68406E+04 SP= 0.00E+00 SK= 0.00E+00
     2080 T=  6061. E= 0.12559708E+05 F= 0.56753203E+04 EK= 0.68844E+04 SP= 0.00E+00 SK= 0.00E+00
     2090 T=  6029. E= 0.12559822E+05 F= 0.57121909E+04 EK= 0.68476E+04 SP= 0.00E+00 SK= 0.00E+00
     2100 T=  5986. E= 0.12560087E+05 F= 0.57607469E+04 EK= 0.67993E+04 SP= 0.00E+00 SK= 0.00E+00
     2110 T=  6069. E= 0.12559741E+05 F= 0.56659477E+04 EK= 0.68938E+04 SP= 0.00E+00 SK= 0.00E+00
     2120 T=  6103. E= 0.12559943E+05 F= 0.56278343E+04 EK= 0.69321E+04 SP= 0.00E+00 SK= 0.00E+00
     2130 T=  6112. E= 0.12559908E+05 F= 0.56174716E+04 EK= 0.69424E+04 SP= 0.00E+00 SK= 0.00E+00
     2140 T=  6100. E= 0.12559862E+05 F= 0.56309830E+04 EK= 0.69289E+04 SP= 0.00E+00 SK= 0.00E+00
     2150 T=  6051. E= 0.12559911E+05 F= 0.56866038E+04 EK= 0.68733E+04 SP= 0.00E+00 SK= 0.00E+00
     2160 T=  6028. E= 0.12559891E+05 F= 0.57126510E+04 EK= 0.68472E+04 SP= 0.00E+00 SK= 0.00E+00
     2170 T=  6042. E= 0.12559854E+05 F= 0.56967175E+04 EK= 0.68631E+04 SP= 0.00E+00 SK= 0.00E+00
     2180 T=  6007. E= 0.12559984E+05 F= 0.57367356E+04 EK= 0.68232E+04 SP= 0.00E+00 SK= 0.00E+00
     2190 T=  6019. E= 0.12559990E+05 F= 0.57232897E+04 EK= 0.68367E+04 SP= 0.00E+00 SK= 0.00E+00
     2200 T=  6086. E= 0.12559743E+05 F= 0.56477116E+04 EK= 0.69120E+04 SP= 0.00E+00 SK= 0.00E+00
     2210 T=  6057. E= 0.12559781E+05 F= 0.56798275E+04 EK= 0.68800E+04 SP= 0.00E+00 SK= 0.00E+00
     2220 T=  6059. E= 0.12560002E+05 F= 0.56775784E+04 EK= 0.68824E+04 SP= 0.00E+00 SK= 0.00E+00
     2230 T=  6070. E= 0.12559880E+05 F= 0.56651609E+04 EK= 0.68947E+04 SP= 0.00E+00 SK= 0.00E+00
     2240 T=  6035. E= 0.12559763E+05 F= 0.57052772E+04 EK= 0.68545E+04 SP= 0.00E+00 SK= 0.00E+00
     2250 T=  5992. E= 0.12559986E+05 F= 0.57540170E+04 EK= 0.68060E+04 SP= 0.00E+00 SK= 0.00E+00
     2260 T=  6042. E= 0.12559955E+05 F= 0.56972832E+04 EK= 0.68627E+04 SP= 0.00E+00 SK= 0.00E+00
     2270 T=  6055. E= 0.12559642E+05 F= 0.56818426E+04 EK= 0.68778E+04 SP= 0.00E+00 SK= 0.00E+00
     2280 T=  6042. E= 0.12559842E+05 F= 0.56977348E+04 EK= 0.68621E+04 SP= 0.00E+00 SK= 0.00E+00
     2290 T=  6094. E= 0.12559888E+05 F= 0.56387977E+04 EK= 0.69211E+04 SP= 0.00E+00 SK= 0.00E+00
     2300 T=  6046. E= 0.12559868E+05 F= 0.56923111E+04 EK= 0.68676E+04 SP= 0.00E+00 SK= 0.00E+00
     2310 T=  6012. E= 0.12559777E+05 F= 0.57312193E+04 EK= 0.68286E+04 SP= 0.00E+00 SK= 0.00E+00
     2320 T=  5988. E= 0.12559967E+05 F= 0.57591463E+04 EK= 0.68008E+04 SP= 0.00E+00 SK= 0.00E+00
     2330 T=  6065. E= 0.12559553E+05 F= 0.56709999E+04 EK= 0.68886E+04 SP= 0.00E+00 SK= 0.00E+00
     2340 T=  6001. E= 0.12559879E+05 F= 0.57435948E+04 EK= 0.68163E+04 SP= 0.00E+00 SK= 0.00E+00
     2350 T=  6000. E= 0.12560081E+05 F= 0.57451610E+04 EK= 0.68149E+04 SP= 0.00E+00 SK= 0.00E+00
     2360 T=  6047. E= 0.12559644E+05 F= 0.56913859E+04 EK= 0.68683E+04 SP= 0.00E+00 SK= 0.00E+00
     2370 T=  6085. E= 0.12560122E+05 F= 0.56486066E+04 EK= 0.69115E+04 SP= 0.00E+00 SK= 0.00E+00
     2380 T=  6153. E= 0.12559717E+05 F= 0.55707512E+04 EK= 0.69890E+04 SP= 0.00E+00 SK= 0.00E+00
     2390 T=  6046. E= 0.12559986E+05 F= 0.56924235E+04 EK= 0.68676E+04 SP= 0.00E+00 SK= 0.00E+00
     2400 T=  6040. E= 0.12559966E+05 F= 0.56995817E+04 EK= 0.68604E+04 SP= 0.00E+00 SK= 0.00E+00
     2410 T=  6018. E= 0.12560145E+05 F= 0.57253270E+04 EK= 0.68348E+04 SP= 0.00E+00 SK= 0.00E+00
     2420 T=  6078. E= 0.12559807E+05 F= 0.56559247E+04 EK= 0.69039E+04 SP= 0.00E+00 SK= 0.00E+00
     2430 T=  6025. E= 0.12559849E+05 F= 0.57160153E+04 EK= 0.68438E+04 SP= 0.00E+00 SK= 0.00E+00
     2440 T=  6020. E= 0.12559748E+05 F= 0.57221627E+04 EK= 0.68376E+04 SP= 0.00E+00 SK= 0.00E+00
     2450 T=  6083. E= 0.12559707E+05 F= 0.56507991E+04 EK= 0.69089E+04 SP= 0.00E+00 SK= 0.00E+00
     2460 T=  6056. E= 0.12559923E+05 F= 0.56815623E+04 EK= 0.68784E+04 SP= 0.00E+00 SK= 0.00E+00
     2470 T=  6051. E= 0.12559652E+05 F= 0.56872228E+04 EK= 0.68724E+04 SP= 0.00E+00 SK= 0.00E+00
     2480 T=  6047. E= 0.12559959E+05 F= 0.56922153E+04 EK= 0.68677E+04 SP= 0.00E+00 SK= 0.00E+00
     2490 T=  6095. E= 0.12559809E+05 F= 0.56366889E+04 EK= 0.69231E+04 SP= 0.00E+00 SK= 0.00E+00
     2500 T=  6099. E= 0.12559866E+05 F= 0.56329794E+04 EK= 0.69269E+04 SP= 0.00E+00 SK= 0.00E+00
     2510 T=  6034. E= 0.12559924E+05 F= 0.57069254E+04 EK= 0.68530E+04 SP= 0.00E+00 SK= 0.00E+00
     2520 T=  6022. E= 0.12559786E+05 F= 0.57202162E+04 EK= 0.68396E+04 SP= 0.00E+00 SK= 0.00E+00
     2530 T=  6065. E= 0.12559908E+05 F= 0.56716557E+04 EK= 0.68883E+04 SP= 0.00E+00 SK= 0.00E+00
     2540 T=  6065. E= 0.12560097E+05 F= 0.56711076E+04 EK= 0.68890E+04 SP= 0.00E+00 SK= 0.00E+00
     2550 T=  6096. E= 0.12559991E+05 F= 0.56364349E+04 EK= 0.69236E+04 SP= 0.00E+00 SK= 0.00E+00
     2560 T=  6114. E= 0.12559889E+05 F= 0.56150476E+04 EK= 0.69448E+04 SP= 0.00E+00 SK= 0.00E+00
     2570 T=  6044. E= 0.12559932E+05 F= 0.56946149E+04 EK= 0.68653E+04 SP= 0.00E+00 SK= 0.00E+00
     2580 T=  6044. E= 0.12559931E+05 F= 0.56955674E+04 EK= 0.68644E+04 SP= 0.00E+00 SK= 0.00E+00
     2590 T=  6070. E= 0.12559825E+05 F= 0.56655028E+04 EK= 0.68943E+04 SP= 0.00E+00 SK= 0.00E+00
     2600 T=  6056. E= 0.12559895E+05 F= 0.56810906E+04 EK= 0.68788E+04 SP= 0.00E+00 SK= 0.00E+00
     2610 T=  6050. E= 0.12559746E+05 F= 0.56878503E+04 EK= 0.68719E+04 SP= 0.00E+00 SK= 0.00E+00
     2620 T=  5994. E= 0.12559746E+05 F= 0.57513549E+04 EK= 0.68084E+04 SP= 0.00E+00 SK= 0.00E+00
     2630 T=  6060. E= 0.12559891E+05 F= 0.56769855E+04 EK= 0.68829E+04 SP= 0.00E+00 SK= 0.00E+00
     2640 T=  6082. E= 0.12559895E+05 F= 0.56517232E+04 EK= 0.69082E+04 SP= 0.00E+00 SK= 0.00E+00
     2650 T=  6068. E= 0.12559865E+05 F= 0.56677928E+04 EK= 0.68921E+04 SP= 0.00E+00 SK= 0.00E+00
     2660 T=  6066. E= 0.12559868E+05 F= 0.56698303E+04 EK= 0.68900E+04 SP= 0.00E+00 SK= 0.00E+00
     2670 T=  6045. E= 0.12559894E+05 F= 0.56935513E+04 EK= 0.68663E+04 SP= 0.00E+00 SK= 0.00E+00
     2680 T=  6063. E= 0.12559780E+05 F= 0.56734839E+04 EK= 0.68863E+04 SP= 0.00E+00 SK= 0.00E+00
     2690 T=  6006. E= 0.12559991E+05 F= 0.57378318E+04 EK= 0.68222E+04 SP= 0.00E+00 SK= 0.00E+00
     2700 T=  6045. E= 0.12559840E+05 F= 0.56940792E+04 EK= 0.68658E+04 SP= 0.00E+00 SK= 0.00E+00
     2710 T=  6089. E= 0.12559881E+05 F= 0.56435298E+04 EK= 0.69164E+04 SP= 0.00E+00 SK= 0.00E+00
     2720 T=  6047. E= 0.12560061E+05 F= 0.56912352E+04 EK= 0.68688E+04 SP= 0.00E+00 SK= 0.00E+00
     2730 T=  6056. E= 0.12559929E+05 F= 0.56808792E+04 EK= 0.68791E+04 SP= 0.00E+00 SK= 0.00E+00
     2740 T=  6096. E= 0.12559755E+05 F= 0.56356988E+04 EK= 0.69241E+04 SP= 0.00E+00 SK= 0.00E+00
     2750 T=  6050. E= 0.12559925E+05 F= 0.56878078E+04 EK= 0.68721E+04 SP= 0.00E+00 SK= 0.00E+00
     2760 T=  6070. E= 0.12560003E+05 F= 0.56660617E+04 EK= 0.68939E+04 SP= 0.00E+00 SK= 0.00E+00
     2770 T=  6044. E= 0.12560162E+05 F= 0.56950580E+04 EK= 0.68651E+04 SP= 0.00E+00 SK= 0.00E+00
     2780 T=  6074. E= 0.12559890E+05 F= 0.56604516E+04 EK= 0.68994E+04 SP= 0.00E+00 SK= 0.00E+00
Randomizing velocities, T = 12000.
     2790 T=  6122. E= 0.12592257E+05 F= 0.56391558E+04 EK= 0.69531E+04 SP= 0.00E+00 SK= 0.00E+00
     2800 T=  6135. E= 0.12592242E+05 F= 0.56242101E+04 EK= 0.69680E+04 SP= 0.00E+00 SK= 0.00E+00
     2810 T=  6121. E= 0.12592318E+05 F= 0.56401188E+04 EK= 0.69522E+04 SP= 0.00E+00 SK= 0.00E+00
     2820 T=  6079. E= 0.12592456E+05 F= 0.56873049E+04 EK= 0.69052E+04 SP= 0.00E+00 SK= 0.00E+00
     2830 T=  6176. E= 0.12592199E+05 F= 0.55769360E+04 EK= 0.70153E+04 SP= 0.00E+00 SK= 0.00E+00
     2840 T=  6113. E= 0.12592188E+05 F= 0.56489698E+04 EK= 0.69432E+04 SP= 0.00E+00 SK= 0.00E+00
     2850 T=  6055. E= 0.12592195E+05 F= 0.57143186E+04 EK= 0.68779E+04 SP= 0.00E+00 SK= 0.00E+00
     2860 T=  6081. E= 0.12592237E+05 F= 0.56849667E+04 EK= 0.69073E+04 SP= 0.00E+00 SK= 0.00E+00
     2870 T=  6085. E= 0.12592277E+05 F= 0.56810373E+04 EK= 0.69112E+04 SP= 0.00E+00 SK= 0.00E+00
     2880 T=  6063. E= 0.12592286E+05 F= 0.57059015E+04 EK= 0.68864E+04 SP= 0.00E+00 SK= 0.00E+00
     2890 T=  6060. E= 0.12592312E+05 F= 0.57087981E+04 EK= 0.68835E+04 SP= 0.00E+00 SK= 0.00E+00
     2900 T=  6077. E= 0.12592384E+05 F= 0.56900958E+04 EK= 0.69023E+04 SP= 0.00E+00 SK= 0.00E+00
     2910 T=  6038. E= 0.12592450E+05 F= 0.57339289E+04 EK= 0.68585E+04 SP= 0.00E+00 SK= 0.00E+00
     2920 T=  6044. E= 0.12592618E+05 F= 0.57273517E+04 EK= 0.68653E+04 SP= 0.00E+00 SK= 0.00E+00
     2930 T=  6122. E= 0.12592328E+05 F= 0.56392631E+04 EK= 0.69531E+04 SP= 0.00E+00 SK= 0.00E+00
     2940 T=  6105. E= 0.12592130E+05 F= 0.56584031E+04 EK= 0.69337E+04 SP= 0.00E+00 SK= 0.00E+00
     2950 T=  6067. E= 0.12592246E+05 F= 0.57009451E+04 EK= 0.68913E+04 SP= 0.00E+00 SK= 0.00E+00
     2960 T=  6107. E= 0.12592119E+05 F= 0.56559204E+04 EK= 0.69362E+04 SP= 0.00E+00 SK= 0.00E+00
     2970 T=  6073. E= 0.12592325E+05 F= 0.56940805E+04 EK= 0.68982E+04 SP= 0.00E+00 SK= 0.00E+00
     2980 T=  6053. E= 0.12592238E+05 F= 0.57166558E+04 EK= 0.68756E+04 SP= 0.00E+00 SK= 0.00E+00
     2990 T=  6062. E= 0.12592242E+05 F= 0.57063854E+04 EK= 0.68859E+04 SP= 0.00E+00 SK= 0.00E+00
     3000 T=  6044. E= 0.12592315E+05 F= 0.57268996E+04 EK= 0.68654E+04 SP= 0.00E+00 SK= 0.00E+00
     3010 T=  6067. E= 0.12592449E+05 F= 0.57013220E+04 EK= 0.68911E+04 SP= 0.00E+00 SK= 0.00E+00
     3020 T=  6108. E= 0.12592326E+05 F= 0.56543484E+04 EK= 0.69380E+04 SP= 0.00E+00 SK= 0.00E+00
     3030 T=  6100. E= 0.12592423E+05 F= 0.56641720E+04 EK= 0.69283E+04 SP= 0.00E+00 SK= 0.00E+00
     3040 T=  6059. E= 0.12592328E+05 F= 0.57099724E+04 EK= 0.68824E+04 SP= 0.00E+00 SK= 0.00E+00
     3050 T=  6021. E= 0.12592276E+05 F= 0.57535711E+04 EK= 0.68387E+04 SP= 0.00E+00 SK= 0.00E+00
     3060 T=  6059. E= 0.12592370E+05 F= 0.57103136E+04 EK= 0.68821E+04 SP= 0.00E+00 SK= 0.00E+00
     3070 T=  6065. E= 0.12592362E+05 F= 0.57042000E+04 EK= 0.68882E+04 SP= 0.00E+00 SK= 0.00E+00
     3080 T=  6069. E= 0.12592525E+05 F= 0.56990258E+04 EK= 0.68935E+04 SP= 0.00E+00 SK= 0.00E+00
     3090 T=  6110. E= 0.12592256E+05 F= 0.56521026E+04 EK= 0.69402E+04 SP= 0.00E+00 SK= 0.00E+00
     3100 T=  6041. E= 0.12592421E+05 F= 0.57304385E+04 EK= 0.68620E+04 SP= 0.00E+00 SK= 0.00E+00
     3110 T=  6042. E= 0.12592210E+05 F= 0.57295310E+04 EK= 0.68627E+04 SP= 0.00E+00 SK= 0.00E+00
     3120 T=  6029. E= 0.12592426E+05 F= 0.57440610E+04 EK= 0.68484E+04 SP= 0.00E+00 SK= 0.00E+00
     3130 T=  6095. E= 0.12592196E+05 F= 0.56688405E+04 EK= 0.69234E+04 SP= 0.00E+00 SK= 0.00E+00
     3140 T=  6074. E= 0.12592485E+05 F= 0.56940369E+04 EK= 0.68984E+04 SP= 0.00E+00 SK= 0.00E+00
     3150 T=  6122. E= 0.12592070E+05 F= 0.56389992E+04 EK= 0.69531E+04 SP= 0.00E+00 SK= 0.00E+00
     3160 T=  6052. E= 0.12592146E+05 F= 0.57181576E+04 EK= 0.68740E+04 SP= 0.00E+00 SK= 0.00E+00
     3170 T=  6004. E= 0.12592183E+05 F= 0.57722637E+04 EK= 0.68199E+04 SP= 0.00E+00 SK= 0.00E+00
     3180 T=  5986. E= 0.12592284E+05 F= 0.57933652E+04 EK= 0.67989E+04 SP= 0.00E+00 SK= 0.00E+00
     3190 T=  6038. E= 0.12592174E+05 F= 0.57337763E+04 EK= 0.68584E+04 SP= 0.00E+00 SK= 0.00E+00
     3200 T=  6102. E= 0.12592205E+05 F= 0.56619342E+04 EK= 0.69303E+04 SP= 0.00E+00 SK= 0.00E+00
     3210 T=  6110. E= 0.12592392E+05 F= 0.56526254E+04 EK= 0.69398E+04 SP= 0.00E+00 SK= 0.00E+00
     3220 T=  6078. E= 0.12592309E+05 F= 0.56890595E+04 EK= 0.69032E+04 SP= 0.00E+00 SK= 0.00E+00
     3230 T=  6072. E= 0.12592302E+05 F= 0.56954562E+04 EK= 0.68968E+04 SP= 0.00E+00 SK= 0.00E+00
     3240 T=  6089. E= 0.12592230E+05 F= 0.56765362E+04 EK= 0.69157E+04 SP= 0.00E+00 SK= 0.00E+00
     3250 T=  6061. E= 0.12592356E+05 F= 0.57086391E+04 EK= 0.68837E+04 SP= 0.00E+00 SK= 0.00E+00
     3260 T=  6053. E= 0.12592358E+05 F= 0.57170833E+04 EK= 0.68753E+04 SP= 0.00E+00 SK= 0.00E+00
     3270 T=  6042. E= 0.12592158E+05 F= 0.57291641E+04 EK= 0.68630E+04 SP= 0.00E+00 SK= 0.00E+00
     3280 T=  6022. E= 0.12592151E+05 F= 0.57524374E+04 EK= 0.68397E+04 SP= 0.00E+00 SK= 0.00E+00
     3290 T=  6056. E= 0.12592067E+05 F= 0.57134308E+04 EK= 0.68786E+04 SP= 0.00E+00 SK= 0.00E+00
     3300 T=  6083. E= 0.12592107E+05 F= 0.56827270E+04 EK= 0.69094E+04 SP= 0.00E+00 SK= 0.00E+00
     3310 T=  6032. E= 0.12592509E+05 F= 0.57416773E+04 EK= 0.68508E+04 SP= 0.00E+00 SK= 0.00E+00
     3320 T=  6074. E= 0.12592279E+05 F= 0.56931268E+04 EK= 0.68992E+04 SP= 0.00E+00 SK= 0.00E+00
     3330 T=  6098. E= 0.12592154E+05 F= 0.56664523E+04 EK= 0.69257E+04 SP= 0.00E+00 SK= 0.00E+00
     3340 T=  6061. E= 0.12592462E+05 F= 0.57081892E+04 EK= 0.68843E+04 SP= 0.00E+00 SK= 0.00E+00
     3350 T=  6067. E= 0.12592226E+05 F= 0.57017648E+04 EK= 0.68905E+04 SP= 0.00E+00 SK= 0.00E+00
     3360 T=  6062. E= 0.12592137E+05 F= 0.57072012E+04 EK= 0.68849E+04 SP= 0.00E+00 SK= 0.00E+00
     3370 T=  6070. E= 0.12592370E+05 F= 0.56983415E+04 EK= 0.68940E+04 SP= 0.00E+00 SK= 0.00E+00
     3380 T=  6106. E= 0.12592372E+05 F= 0.56568796E+04 EK= 0.69355E+04 SP= 0.00E+00 SK= 0.00E+00
     3390 T=  6078. E= 0.12592500E+05 F= 0.56884868E+04 EK= 0.69040E+04 SP= 0.00E+00 SK= 0.00E+00
     3400 T=  6102. E= 0.12592231E+05 F= 0.56610355E+04 EK= 0.69312E+04 SP= 0.00E+00 SK= 0.00E+00
     3410 T=  6041. E= 0.12592677E+05 F= 0.57311362E+04 EK= 0.68615E+04 SP= 0.00E+00 SK= 0.00E+00
     3420 T=  6080. E= 0.12592408E+05 F= 0.56867038E+04 EK= 0.69057E+04 SP= 0.00E+00 SK= 0.00E+00
     3430 T=  6180. E= 0.12592244E+05 F= 0.55726023E+04 EK= 0.70196E+04 SP= 0.00E+00 SK= 0.00E+00
     3440 T=  6134. E= 0.12592449E+05 F= 0.56258336E+04 EK= 0.69666E+04 SP= 0.00E+00 SK= 0.00E+00
     3450 T=  6064. E= 0.12592223E+05 F= 0.57047475E+04 EK= 0.68875E+04 SP= 0.00E+00 SK= 0.00E+00
     3460 T=  6031. E= 0.12592281E+05 F= 0.57420673E+04 EK= 0.68502E+04 SP= 0.00E+00 SK= 0.00E+00
     3470 T=  6088. E= 0.12592275E+05 F= 0.56770701E+04 EK= 0.69152E+04 SP= 0.00E+00 SK= 0.00E+00
     3480 T=  6096. E= 0.12592328E+05 F= 0.56684994E+04 EK= 0.69238E+04 SP= 0.00E+00 SK= 0.00E+00
     3490 T=  6072. E= 0.12592362E+05 F= 0.56959653E+04 EK= 0.68964E+04 SP= 0.00E+00 SK= 0.00E+00
     3500 T=  6071. E= 0.12592292E+05 F= 0.56969886E+04 EK= 0.68953E+04 SP= 0.00E+00 SK= 0.00E+00
     3510 T=  6064. E= 0.12592207E+05 F= 0.57047557E+04 EK= 0.68875E+04 SP= 0.00E+00 SK= 0.00E+00
     3520 T=  6023. E= 0.12592296E+05 F= 0.57515454E+04 EK= 0.68408E+04 SP= 0.00E+00 SK= 0.00E+00
     3530 T=  6055. E= 0.12592146E+05 F= 0.57144537E+04 EK= 0.68777E+04 SP= 0.00E+00 SK= 0.00E+00
     3540 T=  6053. E= 0.12592177E+05 F= 0.57175714E+04 EK= 0.68746E+04 SP= 0.00E+00 SK= 0.00E+00
     3550 T=  6091. E= 0.12592177E+05 F= 0.56741876E+04 EK= 0.69180E+04 SP= 0.00E+00 SK= 0.00E+00
Randomizing velocities, T = 12000.
     3560 T=  6043. E= 0.12534119E+05 F= 0.56701953E+04 EK= 0.68639E+04 SP= 0.00E+00 SK= 0.00E+00
     3570 T=  6091. E= 0.12534349E+05 F= 0.56164796E+04 EK= 0.69179E+04 SP= 0.00E+00 SK= 0.00E+00
Randomizing velocities, T = 12000.
     3580 T=  6099. E= 0.12427747E+05 F= 0.54999771E+04 EK= 0.69278E+04 SP= 0.00E+00 SK= 0.00E+00
     3590 T=  5996. E= 0.12427960E+05 F= 0.56180917E+04 EK= 0.68099E+04 SP= 0.00E+00 SK= 0.00E+00
     3600 T=  5962. E= 0.12427963E+05 F= 0.56561630E+04 EK= 0.67718E+04 SP= 0.00E+00 SK= 0.00E+00
     3610 T=  5965. E= 0.12427748E+05 F= 0.56520973E+04 EK= 0.67757E+04 SP= 0.00E+00 SK= 0.00E+00
     3620 T=  5949. E= 0.12428131E+05 F= 0.56714015E+04 EK= 0.67567E+04 SP= 0.00E+00 SK= 0.00E+00
     3630 T=  6011. E= 0.12427578E+05 F= 0.56004790E+04 EK= 0.68271E+04 SP= 0.00E+00 SK= 0.00E+00
     3640 T=  5914. E= 0.12427825E+05 F= 0.57103631E+04 EK= 0.67175E+04 SP= 0.00E+00 SK= 0.00E+00
     3650 T=  5933. E= 0.12427717E+05 F= 0.56893999E+04 EK= 0.67383E+04 SP= 0.00E+00 SK= 0.00E+00
     3660 T=  6008. E= 0.12427829E+05 F= 0.56039440E+04 EK= 0.68239E+04 SP= 0.00E+00 SK= 0.00E+00
     3670 T=  6011. E= 0.12427667E+05 F= 0.55999066E+04 EK= 0.68278E+04 SP= 0.00E+00 SK= 0.00E+00
     3680 T=  5971. E= 0.12427663E+05 F= 0.56462367E+04 EK= 0.67814E+04 SP= 0.00E+00 SK= 0.00E+00
     3690 T=  5954. E= 0.12427771E+05 F= 0.56656328E+04 EK= 0.67621E+04 SP= 0.00E+00 SK= 0.00E+00
     3700 T=  5969. E= 0.12427891E+05 F= 0.56486471E+04 EK= 0.67792E+04 SP= 0.00E+00 SK= 0.00E+00
     3710 T=  5992. E= 0.12427657E+05 F= 0.56221861E+04 EK= 0.68055E+04 SP= 0.00E+00 SK= 0.00E+00
     3720 T=  5937. E= 0.12427813E+05 F= 0.56844945E+04 EK= 0.67433E+04 SP= 0.00E+00 SK= 0.00E+00
     3730 T=  5926. E= 0.12427929E+05 F= 0.56971944E+04 EK= 0.67307E+04 SP= 0.00E+00 SK= 0.00E+00
     3740 T=  6006. E= 0.12427752E+05 F= 0.56059860E+04 EK= 0.68218E+04 SP= 0.00E+00 SK= 0.00E+00
     3750 T=  6033. E= 0.12427831E+05 F= 0.55752353E+04 EK= 0.68526E+04 SP= 0.00E+00 SK= 0.00E+00
     3760 T=  6033. E= 0.12427852E+05 F= 0.55756503E+04 EK= 0.68522E+04 SP= 0.00E+00 SK= 0.00E+00
     3770 T=  6029. E= 0.12427667E+05 F= 0.55794607E+04 EK= 0.68482E+04 SP= 0.00E+00 SK= 0.00E+00
     3780 T=  5966. E= 0.12427782E+05 F= 0.56515459E+04 EK= 0.67762E+04 SP= 0.00E+00 SK= 0.00E+00
     3790 T=  5895. E= 0.12427972E+05 F= 0.57321445E+04 EK= 0.66958E+04 SP= 0.00E+00 SK= 0.00E+00
     3800 T=  5965. E= 0.12427704E+05 F= 0.56527822E+04 EK= 0.67749E+04 SP= 0.00E+00 SK= 0.00E+00
     3810 T=  5965. E= 0.12428022E+05 F= 0.56532514E+04 EK= 0.67748E+04 SP= 0.00E+00 SK= 0.00E+00
     3820 T=  6001. E= 0.12427710E+05 F= 0.56114400E+04 EK= 0.68163E+04 SP= 0.00E+00 SK= 0.00E+00
Randomizing velocities, T = 12000.
     3830 T=  6044. E= 0.12466285E+05 F= 0.56009449E+04 EK= 0.68653E+04 SP= 0.00E+00 SK= 0.00E+00
     3840 T=  6002. E= 0.12466556E+05 F= 0.56492241E+04 EK= 0.68173E+04 SP= 0.00E+00 SK= 0.00E+00
     3850 T=  5979. E= 0.12466322E+05 F= 0.56753485E+04 EK= 0.67910E+04 SP= 0.00E+00 SK= 0.00E+00
Randomizing velocities, T = 12000.
     3860 T=  5936. E= 0.12413452E+05 F= 0.56717881E+04 EK= 0.67417E+04 SP= 0.00E+00 SK= 0.00E+00
     3870 T=  5962. E= 0.12413543E+05 F= 0.56415304E+04 EK= 0.67720E+04 SP= 0.00E+00 SK= 0.00E+00
     3880 T=  5970. E= 0.12413321E+05 F= 0.56321943E+04 EK= 0.67811E+04 SP= 0.00E+00 SK= 0.00E+00
     3890 T=  5944. E= 0.12413413E+05 F= 0.56624543E+04 EK= 0.67510E+04 SP= 0.00E+00 SK= 0.00E+00
     3900 T=  5930. E= 0.12413422E+05 F= 0.56781968E+04 EK= 0.67352E+04 SP= 0.00E+00 SK= 0.00E+00
     3910 T=  5952. E= 0.12413261E+05 F= 0.56529424E+04 EK= 0.67603E+04 SP= 0.00E+00 SK= 0.00E+00
     3920 T=  5952. E= 0.12413444E+05 F= 0.56532132E+04 EK= 0.67602E+04 SP= 0.00E+00 SK= 0.00E+00
     3930 T=  5967. E= 0.12413512E+05 F= 0.56355548E+04 EK= 0.67780E+04 SP= 0.00E+00 SK= 0.00E+00
     3940 T=  5997. E= 0.12413314E+05 F= 0.56019174E+04 EK= 0.68114E+04 SP= 0.00E+00 SK= 0.00E+00
     3950 T=  5978. E= 0.12413462E+05 F= 0.56238031E+04 EK= 0.67897E+04 SP= 0.00E+00 SK= 0.00E+00
     3960 T=  5947. E= 0.12413595E+05 F= 0.56586478E+04 EK= 0.67549E+04 SP= 0.00E+00 SK= 0.00E+00
Randomizing velocities, T = 12000.
     3970 T=  6024. E= 0.12439135E+05 F= 0.55968815E+04 EK= 0.68423E+04 SP= 0.00E+00 SK= 0.00E+00
     3980 T=  5968. E= 0.12439312E+05 F= 0.56611766E+04 EK= 0.67781E+04 SP= 0.00E+00 SK= 0.00E+00
     3990 T=  5893. E= 0.12439410E+05 F= 0.57457419E+04 EK= 0.66937E+04 SP= 0.00E+00 SK= 0.00E+00
     4000 T=  5926. E= 0.12439101E+05 F= 0.57082297E+04 EK= 0.67309E+04 SP= 0.00E+00 SK= 0.00E+00
     4010 T=  5956. E= 0.12439196E+05 F= 0.56737469E+04 EK= 0.67654E+04 SP= 0.00E+00 SK= 0.00E+00
     4020 T=  5905. E= 0.12439481E+05 F= 0.57320000E+04 EK= 0.67075E+04 SP= 0.00E+00 SK= 0.00E+00
     4030 T=  5946. E= 0.12439140E+05 F= 0.56850695E+04 EK= 0.67541E+04 SP= 0.00E+00 SK= 0.00E+00
     4040 T=  5938. E= 0.12439408E+05 F= 0.56950051E+04 EK= 0.67444E+04 SP= 0.00E+00 SK= 0.00E+00
     4050 T=  5987. E= 0.12439258E+05 F= 0.56387519E+04 EK= 0.68005E+04 SP= 0.00E+00 SK= 0.00E+00
     4060 T=  5968. E= 0.12439461E+05 F= 0.56605925E+04 EK= 0.67789E+04 SP= 0.00E+00 SK= 0.00E+00
     4070 T=  6009. E= 0.12439231E+05 F= 0.56144996E+04 EK= 0.68247E+04 SP= 0.00E+00 SK= 0.00E+00
     4080 T=  5991. E= 0.12439300E+05 F= 0.56348471E+04 EK= 0.68045E+04 SP= 0.00E+00 SK= 0.00E+00
     4090 T=  6001. E= 0.12439434E+05 F= 0.56236869E+04 EK= 0.68157E+04 SP= 0.00E+00 SK= 0.00E+00
     4100 T=  6006. E= 0.12439194E+05 F= 0.56171367E+04 EK= 0.68221E+04 SP= 0.00E+00 SK= 0.00E+00
     4110 T=  5933. E= 0.12439289E+05 F= 0.57006529E+04 EK= 0.67386E+04 SP= 0.00E+00 SK= 0.00E+00
     4120 T=  5933. E= 0.12439370E+05 F= 0.57010649E+04 EK= 0.67383E+04 SP= 0.00E+00 SK= 0.00E+00
     4130 T=  5981. E= 0.12439112E+05 F= 0.56462334E+04 EK= 0.67929E+04 SP= 0.00E+00 SK= 0.00E+00
     4140 T=  5956. E= 0.12439289E+05 F= 0.56743166E+04 EK= 0.67650E+04 SP= 0.00E+00 SK= 0.00E+00
     4150 T=  5924. E= 0.12439279E+05 F= 0.57109364E+04 EK= 0.67283E+04 SP= 0.00E+00 SK= 0.00E+00
     4160 T=  5971. E= 0.12439289E+05 F= 0.56574863E+04 EK= 0.67818E+04 SP= 0.00E+00 SK= 0.00E+00
     4170 T=  5992. E= 0.12439436E+05 F= 0.56337116E+04 EK= 0.68057E+04 SP= 0.00E+00 SK= 0.00E+00
     4180 T=  5961. E= 0.12439454E+05 F= 0.56691072E+04 EK= 0.67703E+04 SP= 0.00E+00 SK= 0.00E+00
     4190 T=  5939. E= 0.12439282E+05 F= 0.56933870E+04 EK= 0.67459E+04 SP= 0.00E+00 SK= 0.00E+00
     4200 T=  5962. E= 0.12439257E+05 F= 0.56674885E+04 EK= 0.67718E+04 SP= 0.00E+00 SK= 0.00E+00
     4210 T=  6009. E= 0.12439158E+05 F= 0.56144238E+04 EK= 0.68247E+04 SP= 0.00E+00 SK= 0.00E+00
     4220 T=  5994. E= 0.12439235E+05 F= 0.56306715E+04 EK= 0.68086E+04 SP= 0.00E+00 SK= 0.00E+00
     4230 T=  5960. E= 0.12439277E+05 F= 0.56701030E+04 EK= 0.67692E+04 SP= 0.00E+00 SK= 0.00E+00
     4240 T=  5940. E= 0.12439214E+05 F= 0.56927201E+04 EK= 0.67465E+04 SP= 0.00E+00 SK= 0.00E+00
     4250 T=  5953. E= 0.12439215E+05 F= 0.56775547E+04 EK= 0.67617E+04 SP= 0.00E+00 SK= 0.00E+00
     4260 T=  6034. E= 0.12439192E+05 F= 0.55861682E+04 EK= 0.68530E+04 SP= 0.00E+00 SK= 0.00E+00
     4270 T=  6003. E= 0.12439365E+05 F= 0.56214674E+04 EK= 0.68179E+04 SP= 0.00E+00 SK= 0.00E+00
     4280 T=  5946. E= 0.12439434E+05 F= 0.56863695E+04 EK= 0.67531E+04 SP= 0.00E+00 SK= 0.00E+00
     4290 T=  5964. E= 0.12439141E+05 F= 0.56656019E+04 EK= 0.67735E+04 SP= 0.00E+00 SK= 0.00E+00
     4300 T=  5938. E= 0.12439407E+05 F= 0.56953025E+04 EK= 0.67441E+04 SP= 0.00E+00 SK= 0.00E+00
Randomizing velocities, T = 12000.
     4310 T=  6037. E= 0.12467812E+05 F= 0.56104961E+04 EK= 0.68573E+04 SP= 0.00E+00 SK= 0.00E+00
     4320 T=  5997. E= 0.12468298E+05 F= 0.56566277E+04 EK= 0.68117E+04 SP= 0.00E+00 SK= 0.00E+00
     4330 T=  5889. E= 0.12468295E+05 F= 0.57799190E+04 EK= 0.66884E+04 SP= 0.00E+00 SK= 0.00E+00
     4340 T=  5967. E= 0.12468004E+05 F= 0.56907010E+04 EK= 0.67773E+04 SP= 0.00E+00 SK= 0.00E+00
     4350 T=  6052. E= 0.12468023E+05 F= 0.55936202E+04 EK= 0.68744E+04 SP= 0.00E+00 SK= 0.00E+00
     4360 T=  6009. E= 0.12468329E+05 F= 0.56437322E+04 EK= 0.68246E+04 SP= 0.00E+00 SK= 0.00E+00
     4370 T=  6023. E= 0.12468166E+05 F= 0.56270110E+04 EK= 0.68412E+04 SP= 0.00E+00 SK= 0.00E+00
     4380 T=  5987. E= 0.12468245E+05 F= 0.56684026E+04 EK= 0.67998E+04 SP= 0.00E+00 SK= 0.00E+00
     4390 T=  5979. E= 0.12468228E+05 F= 0.56766466E+04 EK= 0.67916E+04 SP= 0.00E+00 SK= 0.00E+00
     4400 T=  5928. E= 0.12468148E+05 F= 0.57353611E+04 EK= 0.67328E+04 SP= 0.00E+00 SK= 0.00E+00
     4410 T=  5962. E= 0.12467897E+05 F= 0.56960793E+04 EK= 0.67718E+04 SP= 0.00E+00 SK= 0.00E+00
     4420 T=  6005. E= 0.12468114E+05 F= 0.56472966E+04 EK= 0.68208E+04 SP= 0.00E+00 SK= 0.00E+00
     4430 T=  6016. E= 0.12468075E+05 F= 0.56355214E+04 EK= 0.68326E+04 SP= 0.00E+00 SK= 0.00E+00
     4440 T=  6037. E= 0.12468043E+05 F= 0.56106906E+04 EK= 0.68574E+04 SP= 0.00E+00 SK= 0.00E+00
     4450 T=  5960. E= 0.12468242E+05 F= 0.56988984E+04 EK= 0.67693E+04 SP= 0.00E+00 SK= 0.00E+00
     4460 T=  5965. E= 0.12468210E+05 F= 0.56934188E+04 EK= 0.67748E+04 SP= 0.00E+00 SK= 0.00E+00
     4470 T=  6039. E= 0.12468126E+05 F= 0.56084603E+04 EK= 0.68597E+04 SP= 0.00E+00 SK= 0.00E+00
     4480 T=  5981. E= 0.12468321E+05 F= 0.56747978E+04 EK= 0.67935E+04 SP= 0.00E+00 SK= 0.00E+00
     4490 T=  5974. E= 0.12468240E+05 F= 0.56830151E+04 EK= 0.67852E+04 SP= 0.00E+00 SK= 0.00E+00
     4500 T=  6010. E= 0.12468078E+05 F= 0.56418458E+04 EK= 0.68262E+04 SP= 0.00E+00 SK= 0.00E+00
Randomizing velocities, T = 12000.
     4510 T=  5956. E= 0.12399032E+05 F= 0.56342424E+04 EK= 0.67648E+04 SP= 0.00E+00 SK= 0.00E+00
     4520 T=  6040. E= 0.12398927E+05 F= 0.55384429E+04 EK= 0.68605E+04 SP= 0.00E+00 SK= 0.00E+00
     4530 T=  5974. E= 0.12399101E+05 F= 0.56137782E+04 EK= 0.67853E+04 SP= 0.00E+00 SK= 0.00E+00
     4540 T=  5909. E= 0.12399213E+05 F= 0.56879824E+04 EK= 0.67112E+04 SP= 0.00E+00 SK= 0.00E+00
     4550 T=  5943. E= 0.12399048E+05 F= 0.56493393E+04 EK= 0.67497E+04 SP= 0.00E+00 SK= 0.00E+00
     4560 T=  5978. E= 0.12399004E+05 F= 0.56089236E+04 EK= 0.67901E+04 SP= 0.00E+00 SK= 0.00E+00
     4570 T=  5930. E= 0.12399326E+05 F= 0.56635527E+04 EK= 0.67358E+04 SP= 0.00E+00 SK= 0.00E+00
     4580 T=  5958. E= 0.12399076E+05 F= 0.56313424E+04 EK= 0.67677E+04 SP= 0.00E+00 SK= 0.00E+00
     4590 T=  5927. E= 0.12399179E+05 F= 0.56667110E+04 EK= 0.67325E+04 SP= 0.00E+00 SK= 0.00E+00
     4600 T=  5905. E= 0.12399254E+05 F= 0.56923046E+04 EK= 0.67069E+04 SP= 0.00E+00 SK= 0.00E+00
     4610 T=  5900. E= 0.12399345E+05 F= 0.56981830E+04 EK= 0.67012E+04 SP= 0.00E+00 SK= 0.00E+00
     4620 T=  5947. E= 0.12399136E+05 F= 0.56442786E+04 EK= 0.67549E+04 SP= 0.00E+00 SK= 0.00E+00
     4630 T=  5970. E= 0.12399020E+05 F= 0.56186812E+04 EK= 0.67803E+04 SP= 0.00E+00 SK= 0.00E+00
     4640 T=  5985. E= 0.12399135E+05 F= 0.56011818E+04 EK= 0.67980E+04 SP= 0.00E+00 SK= 0.00E+00
     4650 T=  6031. E= 0.12399080E+05 F= 0.55489004E+04 EK= 0.68502E+04 SP= 0.00E+00 SK= 0.00E+00
     4660 T=  5933. E= 0.12399175E+05 F= 0.56601613E+04 EK= 0.67390E+04 SP= 0.00E+00 SK= 0.00E+00
     4670 T=  5942. E= 0.12399065E+05 F= 0.56500066E+04 EK= 0.67491E+04 SP= 0.00E+00 SK= 0.00E+00
     4680 T=  5982. E= 0.12399195E+05 F= 0.56042759E+04 EK= 0.67949E+04 SP= 0.00E+00 SK= 0.00E+00
     4690 T=  5974. E= 0.12399111E+05 F= 0.56135988E+04 EK= 0.67855E+04 SP= 0.00E+00 SK= 0.00E+00
     4700 T=  5955. E= 0.12399191E+05 F= 0.56353519E+04 EK= 0.67638E+04 SP= 0.00E+00 SK= 0.00E+00
     4710 T=  5999. E= 0.12399203E+05 F= 0.55859883E+04 EK= 0.68132E+04 SP= 0.00E+00 SK= 0.00E+00
     4720 T=  6007. E= 0.12399169E+05 F= 0.55763547E+04 EK= 0.68228E+04 SP= 0.00E+00 SK= 0.00E+00
     4730 T=  5942. E= 0.12399334E+05 F= 0.56499216E+04 EK= 0.67494E+04 SP= 0.00E+00 SK= 0.00E+00
     4740 T=  5928. E= 0.12399139E+05 F= 0.56656629E+04 EK= 0.67335E+04 SP= 0.00E+00 SK= 0.00E+00
     4750 T=  5935. E= 0.12399050E+05 F= 0.56584389E+04 EK= 0.67406E+04 SP= 0.00E+00 SK= 0.00E+00
     4760 T=  5933. E= 0.12399257E+05 F= 0.56599351E+04 EK= 0.67393E+04 SP= 0.00E+00 SK= 0.00E+00
     4770 T=  5952. E= 0.12399090E+05 F= 0.56391707E+04 EK= 0.67599E+04 SP= 0.00E+00 SK= 0.00E+00
     4780 T=  5999. E= 0.12398997E+05 F= 0.55856371E+04 EK= 0.68134E+04 SP= 0.00E+00 SK= 0.00E+00
     4790 T=  5945. E= 0.12399213E+05 F= 0.56471472E+04 EK= 0.67521E+04 SP= 0.00E+00 SK= 0.00E+00
     4800 T=  5984. E= 0.12399143E+05 F= 0.56020667E+04 EK= 0.67971E+04 SP= 0.00E+00 SK= 0.00E+00
     4810 T=  5962. E= 0.12399316E+05 F= 0.56278518E+04 EK= 0.67715E+04 SP= 0.00E+00 SK= 0.00E+00
     4820 T=  5977. E= 0.12399129E+05 F= 0.56107348E+04 EK= 0.67884E+04 SP= 0.00E+00 SK= 0.00E+00
     4830 T=  5970. E= 0.12399098E+05 F= 0.56187963E+04 EK= 0.67803E+04 SP= 0.00E+00 SK= 0.00E+00
     4840 T=  5939. E= 0.12399055E+05 F= 0.56531012E+04 EK= 0.67460E+04 SP= 0.00E+00 SK= 0.00E+00
     4850 T=  5913. E= 0.12399143E+05 F= 0.56835861E+04 EK= 0.67156E+04 SP= 0.00E+00 SK= 0.00E+00
     4860 T=  5961. E= 0.12399152E+05 F= 0.56288969E+04 EK= 0.67703E+04 SP= 0.00E+00 SK= 0.00E+00
     4870 T=  5931. E= 0.12399078E+05 F= 0.56630228E+04 EK= 0.67361E+04 SP= 0.00E+00 SK= 0.00E+00
     4880 T=  5881. E= 0.12399403E+05 F= 0.57192235E+04 EK= 0.66802E+04 SP= 0.00E+00 SK= 0.00E+00
     4890 T=  5946. E= 0.12399095E+05 F= 0.56453741E+04 EK= 0.67537E+04 SP= 0.00E+00 SK= 0.00E+00
     4900 T=  5900. E= 0.12399208E+05 F= 0.56983261E+04 EK= 0.67009E+04 SP= 0.00E+00 SK= 0.00E+00
     4910 T=  5900. E= 0.12399143E+05 F= 0.56981692E+04 EK= 0.67010E+04 SP= 0.00E+00 SK= 0.00E+00
     4920 T=  5965. E= 0.12399143E+05 F= 0.56238150E+04 EK= 0.67753E+04 SP= 0.00E+00 SK= 0.00E+00
     4930 T=  5973. E= 0.12399126E+05 F= 0.56144231E+04 EK= 0.67847E+04 SP= 0.00E+00 SK= 0.00E+00
     4940 T=  5968. E= 0.12398983E+05 F= 0.56209970E+04 EK= 0.67780E+04 SP= 0.00E+00 SK= 0.00E+00
Randomizing velocities, T = 12000.
     4950 T=  6068. E= 0.12515025E+05 F= 0.56228974E+04 EK= 0.68921E+04 SP= 0.00E+00 SK= 0.00E+00
     4960 T=  6051. E= 0.12515060E+05 F= 0.56424998E+04 EK= 0.68726E+04 SP= 0.00E+00 SK= 0.00E+00
     4970 T=  5987. E= 0.12515158E+05 F= 0.57149579E+04 EK= 0.68002E+04 SP= 0.00E+00 SK= 0.00E+00
     4980 T=  6027. E= 0.12515108E+05 F= 0.56697374E+04 EK= 0.68454E+04 SP= 0.00E+00 SK= 0.00E+00
     4990 T=  6013. E= 0.12515202E+05 F= 0.56849897E+04 EK= 0.68302E+04 SP= 0.00E+00 SK= 0.00E+00
Rc and Rl:   5.500000  7.500000
Rc and Rl:   5.500000  7.500000

Average number of steps between two list updates:  11.88
Average number of atoms in the shell:     0.01

Average number of steps between two list updates:  11.88
Rc and Rl:   5.500000  7.500000
Rc and Rl:   5.500000  7.500000

Average number of steps between two list updates:  11.88
Average number of atoms in the shell:     0.01

Average number of steps between two list updates:  11.88
Average number of atoms in the shell:     0.01
Rc and Rl:   5.500000  7.500000
Rc and Rl:   5.500000  7.500000

Average number of steps between two list updates:  11.88
Average number of atoms in the shell:     0.01

Average number of steps between two list updates:  11.88
Average number of atoms in the shell:     0.01
Rc and Rl:   5.500000  7.500000
Rc and Rl:   5.500000  7.500000

Average number of steps between two list updates:  11.88
Average number of atoms in the shell:     0.01

Average number of steps between two list updates:  11.88
Average number of atoms in the shell:     0.01
Average number of atoms in the shell:     0.01
Rc and Rl:   5.500000  7.500000
Rc and Rl:   5.500000  7.500000

Rc and Rl:   5.500000  7.500000
Rc and Rl:   5.500000  7.500000

Rc and Rl:   5.500000  7.500000
Rc and Rl:   5.500000  7.500000

Average number of steps between two list updates:  11.88
Average number of atoms in the shell:     0.01

Average number of steps between two list updates:  11.88
Average number of atoms in the shell:     0.01
Rc and Rl:   5.500000  7.500000
Rc and Rl:   5.500000  7.500000

Average number of steps between two list updates:  11.88
Average number of atoms in the shell:     0.01

Average number of steps between two list updates:  11.88
Average number of atoms in the shell:     0.01
Rc and Rl:   5.500000  7.500000
Rc and Rl:   5.500000  7.500000

Rc and Rl:   5.500000  7.500000
Rc and Rl:   5.500000  7.500000

Average number of steps between two list updates:  11.88
Average number of atoms in the shell:     0.01

Average number of steps between two list updates:  11.88
Average number of atoms in the shell:     0.01
Rc and Rl:   5.500000  7.500000
Rc and Rl:   5.500000  7.500000

Average number of steps between two list updates:  11.88
Average number of atoms in the shell:     0.01

Average number of steps between two list updates:  11.88
Average number of atoms in the shell:     0.01
Rc and Rl:   5.500000  7.500000
Rc and Rl:   5.500000  7.500000

Rc and Rl:   5.500000  7.500000
Rc and Rl:   5.500000  7.500000

Average number of steps between two list updates:  11.88
Average number of atoms in the shell:     0.01

Average number of steps between two list updates:  11.88
Average number of atoms in the shell:     0.01
Average number of steps between two list updates:  11.88
Average number of atoms in the shell:     0.01

Average number of steps between two list updates:  11.88
Average number of atoms in the shell:     0.01
Average number of steps between two list updates:  11.88
Average number of atoms in the shell:     0.01

Average number of steps between two list updates:  11.88
Average number of atoms in the shell:     0.01
Rc and Rl:   5.500000  7.500000
Rc and Rl:   5.500000  7.500000

Rc and Rl:   5.500000  7.500000
Rc and Rl:   5.500000  7.500000

Average number of steps between two list updates:  11.88
Average number of atoms in the shell:     0.01

Average number of steps between two list updates:  11.88
Average number of atoms in the shell:     0.01
Average number of steps between two list updates:  11.88
Average number of atoms in the shell:     0.01

Average number of steps between two list updates:  11.88
Average number of atoms in the shell:     0.01
Average number of steps between two list updates:  11.88
Average number of atoms in the shell:     0.01

Average number of steps between two list updates:  11.88
Average number of atoms in the shell:     0.01
Rc and Rl:   5.500000  7.500000
Rc and Rl:   5.500000  7.500000

Average number of steps between two list updates:  11.88
Average number of atoms in the shell:     0.01

Average number of steps between two list updates:  11.88
Average number of atoms in the shell:     0.01
Rc and Rl:   5.500000  7.500000
Rc and Rl:   5.500000  7.500000

Rc and Rl:   5.500000  7.500000
Rc and Rl:   5.500000  7.500000

Rc and Rl:   5.500000  7.500000
Rc and Rl:   5.500000  7.500000

Average number of steps between two list updates:  11.88
Average number of atoms in the shell:     0.01

Average number of steps between two list updates:  11.88
Average number of atoms in the shell:     0.01
Rc and Rl:   5.500000  7.500000
Rc and Rl:   5.500000  7.500000

Rc and Rl:   5.500000  7.500000
Rc and Rl:   5.500000  7.500000

Average number of steps between two list updates:  11.88
Average number of atoms in the shell:     0.01

Average number of steps between two list updates:  11.88
Average number of atoms in the shell:     0.01
Average number of steps between two list updates:  11.88
Average number of atoms in the shell:     0.01

Average number of steps between two list updates:  11.88
Average number of atoms in the shell:     0.01
Average number of steps between two list updates:  11.88
Average number of atoms in the shell:     0.01

Average number of steps between two list updates:  11.88
Average number of atoms in the shell:     0.01
Rc and Rl:   5.500000  7.500000
Rc and Rl:   5.500000  7.500000

Average number of steps between two list updates:  11.88
Average number of atoms in the shell:     0.01

Average number of steps between two list updates:  11.88
Average number of atoms in the shell:     0.01
Average number of steps between two list updates:  11.88
Average number of atoms in the shell:     0.01

Average number of steps between two list updates:  11.88
Average number of atoms in the shell:     0.01
Average number of steps between two list updates:  11.88
Average number of atoms in the shell:     0.01

Average number of steps between two list updates:  11.88
Average number of atoms in the shell:     0.01
Rc and Rl:   5.500000  7.500000
Rc and Rl:   5.500000  7.500000

Average number of steps between two list updates:  11.88
Average number of atoms in the shell:     0.01

Average number of steps between two list updates:  11.88
Average number of atoms in the shell:     0.01
Rc and Rl:   5.500000  7.500000
Rc and Rl:   5.500000  7.500000

Average number of steps between two list updates:  11.88
Average number of atoms in the shell:     0.01

Average number of steps between two list updates:  11.88
Average number of atoms in the shell:     0.01
Rc and Rl:   5.500000  7.500000
Rc and Rl:   5.500000  7.500000

Average number of steps between two list updates:  11.88
Average number of atoms in the shell:     0.01

Average number of steps between two list updates:  11.88
Average number of atoms in the shell:     0.01
Rc and Rl:   5.500000  7.500000
Rc and Rl:   5.500000  7.500000

Average number of steps between two list updates:  11.88
Average number of atoms in the shell:     0.01

Average number of steps between two list updates:  11.88
Average number of atoms in the shell:     0.01
Rc and Rl:   5.500000  7.500000
Rc and Rl:   5.500000  7.500000

Average number of steps between two list updates:  11.88
Average number of atoms in the shell:     0.01

Average number of steps between two list updates:  11.88
Average number of atoms in the shell:     0.01
Rc and Rl:   5.500000  7.500000
Rc and Rl:   5.500000  7.500000

Average number of steps between two list updates:  11.88
Rc and Rl:   5.500000  7.500000
Rc and Rl:   5.500000  7.500000

Average number of steps between two list updates:  11.88
Average number of atoms in the shell:     0.01

Average number of steps between two list updates:  11.88
Average number of atoms in the shell:     0.01
Rc and Rl:   5.500000  7.500000
Rc and Rl:   5.500000  7.500000

Average number of steps between two list updates:  11.88
Average number of atoms in the shell:     0.01

Average number of steps between two list updates:  11.88
Average number of atoms in the shell:     0.01
Rc and Rl:   5.500000  7.500000
Rc and Rl:   5.500000  7.500000

Average number of steps between two list updates:  11.88
Average number of atoms in the shell:     0.01

Average number of steps between two list updates:  11.88
Average number of atoms in the shell:     0.01
Rc and Rl:   5.500000  7.500000
Rc and Rl:   5.500000  7.500000

Average number of steps between two list updates:  11.88
Average number of atoms in the shell:     0.01

Average number of steps between two list updates:  11.88
Average number of atoms in the shell:     0.01
Rc and Rl:   5.500000  7.500000
Rc and Rl:   5.500000  7.500000

Average number of steps between two list updates:  11.88
Average number of atoms in the shell:     0.01

Average number of steps between two list updates:  11.88
Average number of atoms in the shell:     0.01
Rc and Rl:   5.500000  7.500000
Rc and Rl:   5.500000  7.500000

Average number of steps between two list updates:  11.88
Average number of atoms in the shell:     0.01

Average number of steps between two list updates:  11.88
Average number of atoms in the shell:     0.01
Rc and Rl:   5.500000  7.500000
Rc and Rl:   5.500000  7.500000

Average number of steps between two list updates:  11.88
Average number of atoms in the shell:     0.01

Average number of steps between two list updates:  11.88
Average number of atoms in the shell:     0.01
Rc and Rl:   5.500000  7.500000
Rc and Rl:   5.500000  7.500000

Average number of steps between two list updates:  11.88
Average number of atoms in the shell:     0.01

Average number of steps between two list updates:  11.88
Average number of atoms in the shell:     0.01
Rc and Rl:   5.500000  7.500000
Rc and Rl:   5.500000  7.500000

Average number of steps between two list updates:  11.88
Average number of atoms in the shell:     0.01

Average number of steps between two list updates:  11.88
Average number of atoms in the shell:     0.01
Rc and Rl:   5.500000  7.500000
Rc and Rl:   5.500000  7.500000

Average number of steps between two list updates:  11.88
Average number of atoms in the shell:     0.01

Average number of steps between two list updates:  11.88
Average number of atoms in the shell:     0.01
Average number of atoms in the shell:     0.01

Average number of steps between two list updates:  11.88
Average number of atoms in the shell:     0.01
Rc and Rl:   5.500000  7.500000
Rc and Rl:   5.500000  7.500000

Average number of steps between two list updates:  11.88
Average number of atoms in the shell:     0.01

Average number of steps between two list updates:  11.88
Average number of atoms in the shell:     0.01
     5000 T=  5992. E= 0.12515251E+05 F= 0.57091731E+04 EK= 0.68061E+04 SP= 0.00E+00 SK= 0.00E+00
Rc and Rl:   5.500000  7.500000

Average number of steps between two list updates:  11.88
Average number of atoms in the shell:     0.01
