 running on   40 nodes
 distr:  one band on    1 nodes,   40 groups
 md.x 0.99
 POSCAR found :  1 types and     8788 ions
Rc and Rl:   5.500000  7.500000
 TIPO = eam     
 TIPO1 = uknown p
 Using EAM

 EAM parameters: 
 C  =   4.0539  EPS  = 0.0057  A  = 4.3418  M  = 6.782  N  =  7.748  R1 =   5.500000


 ----------------------------------------------------------------------------- 
|                                                                             |
|           W    W    AA    RRRRR   N    N  II  N    N   GGGG   !!!           |
|           W    W   A  A   R    R  NN   N  II  NN   N  G    G  !!!           |
|           W    W  A    A  R    R  N N  N  II  N N  N  G       !!!           |
|           W WW W  AAAAAA  RRRRR   N  N N  II  N  N N  G  GGG   !            |
|           WW  WW  A    A  R   R   N   NN  II  N   NN  G    G                |
|           W    W  A    A  R    R  N    N  II  N    N   GGGG   !!!           |
|                                                                             |
|      VASP found  26361 degrees of freedom                                   |
|      the temperature will equal 2*E(kin)/ (degrees of freedom)              |
|      this differs from previous releases, where T was 2*E(kin)/(3 NIONS).   |
|      The new definition is more consistent                                  |
|                                                                             |
 ----------------------------------------------------------------------------- 

 Random init:        1427        8998
 Random init:        1427        8998
 Random init:        1427        8998
 Random init:        1427        8998
 Random init:        1427        8998
 Random init:        1427        8998
 Random init:        1427        8998
 Random init:        1427        8998
 Random init:        1427        8998
 Random init:        1427        8998
 Random init:        1427        8998
 Random init:        1427        8998
 Random init:        1427        8998
 Random init:        1427        8998
 Random init:        1427        8998
 Random init:        1427        8998
 Random init:        1427        8998
 Random init:        1427        8998
 Random init:        1427        8998
 Random init:        1427        8998
 Random init:        1427        8998
 Random init:        1427        8998
 Random init:        1427        8998
 Random init:        1427        8998
 Random init:        1427        8998
 Random init:        1427        8998
 Random init:        1427        8998
 Random init:        1427        8998
 Random init:        1427        8998
 Random init:        1427        8998
 Random init:        1427        8998
 Random init:        1427        8998
 Random init:        1427        8998
 Random init:        1427        8998
 Random init:        1427        8998
 Random init:        1427        8998
 Random init:        1427        8998
 Random init:        1427        8998
 Random init:        1427        8998
 Random init:        1427        8998
 alloco spazio per displ
       10 T=  1628. E= 0.79346239E+04 F= 0.60851304E+04 EK= 0.18495E+04 SP= 0.00E+00 SK= 0.00E+00
       20 T=  2205. E= 0.79351577E+04 F= 0.54310500E+04 EK= 0.25041E+04 SP= 0.00E+00 SK= 0.00E+00
       30 T=  2287. E= 0.79354377E+04 F= 0.53372788E+04 EK= 0.25982E+04 SP= 0.00E+00 SK= 0.00E+00
       40 T=  2278. E= 0.79354913E+04 F= 0.53484496E+04 EK= 0.25870E+04 SP= 0.00E+00 SK= 0.00E+00
       50 T=  2273. E= 0.79354357E+04 F= 0.53535150E+04 EK= 0.25819E+04 SP= 0.00E+00 SK= 0.00E+00
       60 T=  2245. E= 0.79354954E+04 F= 0.53851479E+04 EK= 0.25503E+04 SP= 0.00E+00 SK= 0.00E+00
       70 T=  2250. E= 0.79354225E+04 F= 0.53794477E+04 EK= 0.25560E+04 SP= 0.00E+00 SK= 0.00E+00
       80 T=  2230. E= 0.79354566E+04 F= 0.54025644E+04 EK= 0.25329E+04 SP= 0.00E+00 SK= 0.00E+00
       90 T=  2246. E= 0.79354588E+04 F= 0.53844560E+04 EK= 0.25510E+04 SP= 0.00E+00 SK= 0.00E+00
      100 T=  2283. E= 0.79354519E+04 F= 0.53423121E+04 EK= 0.25931E+04 SP= 0.00E+00 SK= 0.00E+00
      110 T=  2297. E= 0.79354584E+04 F= 0.53268211E+04 EK= 0.26086E+04 SP= 0.00E+00 SK= 0.00E+00
      120 T=  2294. E= 0.79354694E+04 F= 0.53304473E+04 EK= 0.26050E+04 SP= 0.00E+00 SK= 0.00E+00
      130 T=  2278. E= 0.79354696E+04 F= 0.53479837E+04 EK= 0.25875E+04 SP= 0.00E+00 SK= 0.00E+00
      140 T=  2260. E= 0.79354705E+04 F= 0.53688335E+04 EK= 0.25666E+04 SP= 0.00E+00 SK= 0.00E+00
      150 T=  2255. E= 0.79354450E+04 F= 0.53746485E+04 EK= 0.25608E+04 SP= 0.00E+00 SK= 0.00E+00
      160 T=  2254. E= 0.79354887E+04 F= 0.53750508E+04 EK= 0.25604E+04 SP= 0.00E+00 SK= 0.00E+00
      170 T=  2267. E= 0.79354543E+04 F= 0.53606597E+04 EK= 0.25748E+04 SP= 0.00E+00 SK= 0.00E+00
      180 T=  2258. E= 0.79355194E+04 F= 0.53706286E+04 EK= 0.25649E+04 SP= 0.00E+00 SK= 0.00E+00
      190 T=  2280. E= 0.79354312E+04 F= 0.53457892E+04 EK= 0.25896E+04 SP= 0.00E+00 SK= 0.00E+00
      200 T=  2278. E= 0.79354659E+04 F= 0.53484007E+04 EK= 0.25871E+04 SP= 0.00E+00 SK= 0.00E+00
      210 T=  2268. E= 0.79354297E+04 F= 0.53595962E+04 EK= 0.25758E+04 SP= 0.00E+00 SK= 0.00E+00
      220 T=  2248. E= 0.79354875E+04 F= 0.53817160E+04 EK= 0.25538E+04 SP= 0.00E+00 SK= 0.00E+00
      230 T=  2260. E= 0.79354421E+04 F= 0.53687728E+04 EK= 0.25667E+04 SP= 0.00E+00 SK= 0.00E+00
      240 T=  2268. E= 0.79354078E+04 F= 0.53592908E+04 EK= 0.25761E+04 SP= 0.00E+00 SK= 0.00E+00
      250 T=  2251. E= 0.79354817E+04 F= 0.53791185E+04 EK= 0.25564E+04 SP= 0.00E+00 SK= 0.00E+00
Randomizing velocities, T =  1500.
      260 T=   844. E= 0.62329114E+04 F= 0.52746814E+04 EK= 0.95823E+03 SP= 0.00E+00 SK= 0.00E+00
      270 T=  1158. E= 0.62326326E+04 F= 0.49174514E+04 EK= 0.13152E+04 SP= 0.00E+00 SK= 0.00E+00
      280 T=  1298. E= 0.62327251E+04 F= 0.47579277E+04 EK= 0.14748E+04 SP= 0.00E+00 SK= 0.00E+00
      290 T=  1314. E= 0.62327999E+04 F= 0.47404687E+04 EK= 0.14923E+04 SP= 0.00E+00 SK= 0.00E+00
      300 T=  1308. E= 0.62328060E+04 F= 0.47466229E+04 EK= 0.14862E+04 SP= 0.00E+00 SK= 0.00E+00
      310 T=  1299. E= 0.62328076E+04 F= 0.47577627E+04 EK= 0.14750E+04 SP= 0.00E+00 SK= 0.00E+00
      320 T=  1295. E= 0.62328183E+04 F= 0.47623837E+04 EK= 0.14704E+04 SP= 0.00E+00 SK= 0.00E+00
      330 T=  1303. E= 0.62327920E+04 F= 0.47523960E+04 EK= 0.14804E+04 SP= 0.00E+00 SK= 0.00E+00
      340 T=  1299. E= 0.62328000E+04 F= 0.47572827E+04 EK= 0.14755E+04 SP= 0.00E+00 SK= 0.00E+00
      350 T=  1295. E= 0.62328035E+04 F= 0.47620597E+04 EK= 0.14707E+04 SP= 0.00E+00 SK= 0.00E+00
      360 T=  1295. E= 0.62328123E+04 F= 0.47623269E+04 EK= 0.14705E+04 SP= 0.00E+00 SK= 0.00E+00
      370 T=  1297. E= 0.62327989E+04 F= 0.47595585E+04 EK= 0.14732E+04 SP= 0.00E+00 SK= 0.00E+00
      380 T=  1297. E= 0.62328019E+04 F= 0.47592618E+04 EK= 0.14735E+04 SP= 0.00E+00 SK= 0.00E+00
      390 T=  1295. E= 0.62328084E+04 F= 0.47615700E+04 EK= 0.14712E+04 SP= 0.00E+00 SK= 0.00E+00
      400 T=  1298. E= 0.62328106E+04 F= 0.47586709E+04 EK= 0.14741E+04 SP= 0.00E+00 SK= 0.00E+00
      410 T=  1308. E= 0.62328153E+04 F= 0.47469119E+04 EK= 0.14859E+04 SP= 0.00E+00 SK= 0.00E+00
      420 T=  1325. E= 0.62328022E+04 F= 0.47278886E+04 EK= 0.15049E+04 SP= 0.00E+00 SK= 0.00E+00
      430 T=  1332. E= 0.62328014E+04 F= 0.47204079E+04 EK= 0.15124E+04 SP= 0.00E+00 SK= 0.00E+00
      440 T=  1323. E= 0.62328095E+04 F= 0.47301502E+04 EK= 0.15027E+04 SP= 0.00E+00 SK= 0.00E+00
      450 T=  1311. E= 0.62328124E+04 F= 0.47441362E+04 EK= 0.14887E+04 SP= 0.00E+00 SK= 0.00E+00
      460 T=  1304. E= 0.62328113E+04 F= 0.47514006E+04 EK= 0.14814E+04 SP= 0.00E+00 SK= 0.00E+00
Randomizing velocities, T =  1500.
      470 T=   754. E= 0.55905766E+04 F= 0.47338052E+04 EK= 0.85677E+03 SP= 0.00E+00 SK= 0.00E+00
      480 T=   864. E= 0.55904592E+04 F= 0.46095151E+04 EK= 0.98094E+03 SP= 0.00E+00 SK= 0.00E+00
      490 T=   956. E= 0.55904396E+04 F= 0.45048652E+04 EK= 0.10856E+04 SP= 0.00E+00 SK= 0.00E+00
      500 T=   979. E= 0.55904743E+04 F= 0.44786798E+04 EK= 0.11118E+04 SP= 0.00E+00 SK= 0.00E+00
      510 T=   971. E= 0.55905023E+04 F= 0.44874130E+04 EK= 0.11031E+04 SP= 0.00E+00 SK= 0.00E+00
      520 T=   971. E= 0.55904982E+04 F= 0.44873817E+04 EK= 0.11031E+04 SP= 0.00E+00 SK= 0.00E+00
      530 T=   978. E= 0.55904845E+04 F= 0.44797908E+04 EK= 0.11107E+04 SP= 0.00E+00 SK= 0.00E+00
      540 T=   974. E= 0.55904854E+04 F= 0.44847174E+04 EK= 0.11058E+04 SP= 0.00E+00 SK= 0.00E+00
      550 T=   962. E= 0.55905066E+04 F= 0.44982806E+04 EK= 0.10922E+04 SP= 0.00E+00 SK= 0.00E+00
      560 T=   965. E= 0.55904921E+04 F= 0.44943752E+04 EK= 0.10961E+04 SP= 0.00E+00 SK= 0.00E+00
      570 T=   971. E= 0.55904835E+04 F= 0.44870482E+04 EK= 0.11034E+04 SP= 0.00E+00 SK= 0.00E+00
      580 T=   969. E= 0.55904957E+04 F= 0.44893732E+04 EK= 0.11011E+04 SP= 0.00E+00 SK= 0.00E+00
      590 T=   970. E= 0.55904887E+04 F= 0.44882215E+04 EK= 0.11023E+04 SP= 0.00E+00 SK= 0.00E+00
      600 T=   969. E= 0.55904889E+04 F= 0.44894000E+04 EK= 0.11011E+04 SP= 0.00E+00 SK= 0.00E+00
      610 T=   964. E= 0.55904917E+04 F= 0.44955550E+04 EK= 0.10949E+04 SP= 0.00E+00 SK= 0.00E+00
      620 T=   958. E= 0.55904874E+04 F= 0.45023490E+04 EK= 0.10881E+04 SP= 0.00E+00 SK= 0.00E+00
      630 T=   954. E= 0.55904993E+04 F= 0.45068404E+04 EK= 0.10837E+04 SP= 0.00E+00 SK= 0.00E+00
      640 T=   960. E= 0.55904843E+04 F= 0.45005138E+04 EK= 0.10900E+04 SP= 0.00E+00 SK= 0.00E+00
      650 T=   961. E= 0.55904946E+04 F= 0.44993143E+04 EK= 0.10912E+04 SP= 0.00E+00 SK= 0.00E+00
      660 T=   964. E= 0.55904882E+04 F= 0.44951507E+04 EK= 0.10953E+04 SP= 0.00E+00 SK= 0.00E+00
      670 T=   966. E= 0.55904868E+04 F= 0.44930435E+04 EK= 0.10974E+04 SP= 0.00E+00 SK= 0.00E+00
      680 T=   967. E= 0.55904943E+04 F= 0.44925041E+04 EK= 0.10980E+04 SP= 0.00E+00 SK= 0.00E+00
      690 T=   970. E= 0.55904786E+04 F= 0.44883007E+04 EK= 0.11022E+04 SP= 0.00E+00 SK= 0.00E+00
      700 T=   965. E= 0.55904964E+04 F= 0.44944987E+04 EK= 0.10960E+04 SP= 0.00E+00 SK= 0.00E+00
      710 T=   968. E= 0.55904974E+04 F= 0.44914341E+04 EK= 0.10991E+04 SP= 0.00E+00 SK= 0.00E+00
      720 T=   981. E= 0.55904840E+04 F= 0.44764554E+04 EK= 0.11140E+04 SP= 0.00E+00 SK= 0.00E+00
      730 T=   985. E= 0.55904779E+04 F= 0.44722154E+04 EK= 0.11183E+04 SP= 0.00E+00 SK= 0.00E+00
      740 T=   971. E= 0.55905040E+04 F= 0.44874693E+04 EK= 0.11030E+04 SP= 0.00E+00 SK= 0.00E+00
      750 T=   972. E= 0.55904937E+04 F= 0.44868327E+04 EK= 0.11037E+04 SP= 0.00E+00 SK= 0.00E+00
      760 T=   980. E= 0.55904812E+04 F= 0.44777132E+04 EK= 0.11128E+04 SP= 0.00E+00 SK= 0.00E+00
      770 T=   977. E= 0.55904925E+04 F= 0.44813181E+04 EK= 0.11092E+04 SP= 0.00E+00 SK= 0.00E+00
      780 T=   971. E= 0.55904895E+04 F= 0.44874794E+04 EK= 0.11030E+04 SP= 0.00E+00 SK= 0.00E+00
      790 T=   968. E= 0.55905022E+04 F= 0.44913294E+04 EK= 0.10992E+04 SP= 0.00E+00 SK= 0.00E+00
      800 T=   977. E= 0.55904828E+04 F= 0.44807622E+04 EK= 0.11097E+04 SP= 0.00E+00 SK= 0.00E+00
      810 T=   982. E= 0.55904808E+04 F= 0.44751499E+04 EK= 0.11153E+04 SP= 0.00E+00 SK= 0.00E+00
      820 T=   976. E= 0.55904839E+04 F= 0.44822389E+04 EK= 0.11082E+04 SP= 0.00E+00 SK= 0.00E+00
      830 T=   963. E= 0.55904942E+04 F= 0.44964429E+04 EK= 0.10941E+04 SP= 0.00E+00 SK= 0.00E+00
      840 T=   959. E= 0.55905046E+04 F= 0.45015676E+04 EK= 0.10889E+04 SP= 0.00E+00 SK= 0.00E+00
      850 T=   970. E= 0.55904902E+04 F= 0.44887074E+04 EK= 0.11018E+04 SP= 0.00E+00 SK= 0.00E+00
      860 T=   976. E= 0.55904801E+04 F= 0.44818304E+04 EK= 0.11086E+04 SP= 0.00E+00 SK= 0.00E+00
Randomizing velocities, T =  1500.
      870 T=   774. E= 0.53294654E+04 F= 0.44504888E+04 EK= 0.87898E+03 SP= 0.00E+00 SK= 0.00E+00
      880 T=   812. E= 0.53294563E+04 F= 0.44066921E+04 EK= 0.92276E+03 SP= 0.00E+00 SK= 0.00E+00
      890 T=   838. E= 0.53294524E+04 F= 0.43773728E+04 EK= 0.95208E+03 SP= 0.00E+00 SK= 0.00E+00
      900 T=   845. E= 0.53294557E+04 F= 0.43698631E+04 EK= 0.95959E+03 SP= 0.00E+00 SK= 0.00E+00
      910 T=   838. E= 0.53294685E+04 F= 0.43774158E+04 EK= 0.95205E+03 SP= 0.00E+00 SK= 0.00E+00
      920 T=   835. E= 0.53294684E+04 F= 0.43805126E+04 EK= 0.94896E+03 SP= 0.00E+00 SK= 0.00E+00
      930 T=   841. E= 0.53294655E+04 F= 0.43742941E+04 EK= 0.95517E+03 SP= 0.00E+00 SK= 0.00E+00
      940 T=   850. E= 0.53294572E+04 F= 0.43644991E+04 EK= 0.96496E+03 SP= 0.00E+00 SK= 0.00E+00
      950 T=   849. E= 0.53294541E+04 F= 0.43655371E+04 EK= 0.96392E+03 SP= 0.00E+00 SK= 0.00E+00
      960 T=   837. E= 0.53294712E+04 F= 0.43791531E+04 EK= 0.95032E+03 SP= 0.00E+00 SK= 0.00E+00
      970 T=   831. E= 0.53294629E+04 F= 0.43853626E+04 EK= 0.94410E+03 SP= 0.00E+00 SK= 0.00E+00
      980 T=   829. E= 0.53294616E+04 F= 0.43876079E+04 EK= 0.94185E+03 SP= 0.00E+00 SK= 0.00E+00
      990 T=   830. E= 0.53294636E+04 F= 0.43871525E+04 EK= 0.94231E+03 SP= 0.00E+00 SK= 0.00E+00
Randomizing velocities, T =  1500.
     1000 T=   761. E= 0.52364184E+04 F= 0.43720221E+04 EK= 0.86440E+03 SP= 0.00E+00 SK= 0.00E+00
     1010 T=   775. E= 0.52364122E+04 F= 0.43563206E+04 EK= 0.88009E+03 SP= 0.00E+00 SK= 0.00E+00
     1020 T=   778. E= 0.52364270E+04 F= 0.43522850E+04 EK= 0.88414E+03 SP= 0.00E+00 SK= 0.00E+00
     1030 T=   784. E= 0.52364187E+04 F= 0.43456781E+04 EK= 0.89074E+03 SP= 0.00E+00 SK= 0.00E+00
     1040 T=   786. E= 0.52364152E+04 F= 0.43440862E+04 EK= 0.89233E+03 SP= 0.00E+00 SK= 0.00E+00
     1050 T=   782. E= 0.52364282E+04 F= 0.43485034E+04 EK= 0.88792E+03 SP= 0.00E+00 SK= 0.00E+00
     1060 T=   785. E= 0.52364186E+04 F= 0.43449232E+04 EK= 0.89150E+03 SP= 0.00E+00 SK= 0.00E+00
     1070 T=   787. E= 0.52364181E+04 F= 0.43425917E+04 EK= 0.89383E+03 SP= 0.00E+00 SK= 0.00E+00
     1080 T=   787. E= 0.52364253E+04 F= 0.43430841E+04 EK= 0.89334E+03 SP= 0.00E+00 SK= 0.00E+00
     1090 T=   791. E= 0.52364183E+04 F= 0.43379079E+04 EK= 0.89851E+03 SP= 0.00E+00 SK= 0.00E+00
     1100 T=   793. E= 0.52364186E+04 F= 0.43357071E+04 EK= 0.90071E+03 SP= 0.00E+00 SK= 0.00E+00
     1110 T=   794. E= 0.52364245E+04 F= 0.43347495E+04 EK= 0.90167E+03 SP= 0.00E+00 SK= 0.00E+00
     1120 T=   799. E= 0.52364156E+04 F= 0.43294633E+04 EK= 0.90695E+03 SP= 0.00E+00 SK= 0.00E+00
     1130 T=   800. E= 0.52364211E+04 F= 0.43279577E+04 EK= 0.90846E+03 SP= 0.00E+00 SK= 0.00E+00
Randomizing velocities, T =  1500.
     1140 T=   761. E= 0.51711125E+04 F= 0.43064007E+04 EK= 0.86471E+03 SP= 0.00E+00 SK= 0.00E+00
     1150 T=   771. E= 0.51711168E+04 F= 0.42954667E+04 EK= 0.87565E+03 SP= 0.00E+00 SK= 0.00E+00
     1160 T=   769. E= 0.51711237E+04 F= 0.42978565E+04 EK= 0.87327E+03 SP= 0.00E+00 SK= 0.00E+00
     1170 T=   764. E= 0.51711254E+04 F= 0.43035386E+04 EK= 0.86759E+03 SP= 0.00E+00 SK= 0.00E+00
     1180 T=   759. E= 0.51711248E+04 F= 0.43086009E+04 EK= 0.86252E+03 SP= 0.00E+00 SK= 0.00E+00
     1190 T=   756. E= 0.51711255E+04 F= 0.43129506E+04 EK= 0.85817E+03 SP= 0.00E+00 SK= 0.00E+00
     1200 T=   754. E= 0.51711276E+04 F= 0.43142922E+04 EK= 0.85684E+03 SP= 0.00E+00 SK= 0.00E+00
     1210 T=   755. E= 0.51711169E+04 F= 0.43134689E+04 EK= 0.85765E+03 SP= 0.00E+00 SK= 0.00E+00
     1220 T=   749. E= 0.51711288E+04 F= 0.43205148E+04 EK= 0.85061E+03 SP= 0.00E+00 SK= 0.00E+00
     1230 T=   748. E= 0.51711305E+04 F= 0.43211437E+04 EK= 0.84999E+03 SP= 0.00E+00 SK= 0.00E+00
     1240 T=   758. E= 0.51711265E+04 F= 0.43097683E+04 EK= 0.86136E+03 SP= 0.00E+00 SK= 0.00E+00
     1250 T=   771. E= 0.51711152E+04 F= 0.42950516E+04 EK= 0.87606E+03 SP= 0.00E+00 SK= 0.00E+00
     1260 T=   773. E= 0.51711190E+04 F= 0.42934147E+04 EK= 0.87770E+03 SP= 0.00E+00 SK= 0.00E+00
     1270 T=   765. E= 0.51711250E+04 F= 0.43027591E+04 EK= 0.86837E+03 SP= 0.00E+00 SK= 0.00E+00
     1280 T=   757. E= 0.51711318E+04 F= 0.43111870E+04 EK= 0.85994E+03 SP= 0.00E+00 SK= 0.00E+00
     1290 T=   759. E= 0.51711267E+04 F= 0.43085896E+04 EK= 0.86254E+03 SP= 0.00E+00 SK= 0.00E+00
     1300 T=   765. E= 0.51711171E+04 F= 0.43019391E+04 EK= 0.86918E+03 SP= 0.00E+00 SK= 0.00E+00
     1310 T=   765. E= 0.51711270E+04 F= 0.43020170E+04 EK= 0.86911E+03 SP= 0.00E+00 SK= 0.00E+00
     1320 T=   766. E= 0.51711211E+04 F= 0.43008852E+04 EK= 0.87024E+03 SP= 0.00E+00 SK= 0.00E+00
     1330 T=   766. E= 0.51711238E+04 F= 0.43008072E+04 EK= 0.87032E+03 SP= 0.00E+00 SK= 0.00E+00
Randomizing velocities, T =  1500.
     1340 T=   753. E= 0.51555588E+04 F= 0.43006790E+04 EK= 0.85488E+03 SP= 0.00E+00 SK= 0.00E+00
     1350 T=   759. E= 0.51555505E+04 F= 0.42936945E+04 EK= 0.86186E+03 SP= 0.00E+00 SK= 0.00E+00
     1360 T=   758. E= 0.51555557E+04 F= 0.42951238E+04 EK= 0.86043E+03 SP= 0.00E+00 SK= 0.00E+00
     1370 T=   753. E= 0.51555609E+04 F= 0.42997285E+04 EK= 0.85583E+03 SP= 0.00E+00 SK= 0.00E+00
     1380 T=   753. E= 0.51555545E+04 F= 0.43005559E+04 EK= 0.85500E+03 SP= 0.00E+00 SK= 0.00E+00
     1390 T=   751. E= 0.51555608E+04 F= 0.43028891E+04 EK= 0.85267E+03 SP= 0.00E+00 SK= 0.00E+00
     1400 T=   750. E= 0.51555589E+04 F= 0.43039768E+04 EK= 0.85158E+03 SP= 0.00E+00 SK= 0.00E+00
     1410 T=   750. E= 0.51555581E+04 F= 0.43038888E+04 EK= 0.85167E+03 SP= 0.00E+00 SK= 0.00E+00
     1420 T=   751. E= 0.51555607E+04 F= 0.43026549E+04 EK= 0.85291E+03 SP= 0.00E+00 SK= 0.00E+00
     1430 T=   755. E= 0.51555523E+04 F= 0.42975645E+04 EK= 0.85799E+03 SP= 0.00E+00 SK= 0.00E+00
     1440 T=   755. E= 0.51555544E+04 F= 0.42984309E+04 EK= 0.85712E+03 SP= 0.00E+00 SK= 0.00E+00
     1450 T=   750. E= 0.51555636E+04 F= 0.43038168E+04 EK= 0.85175E+03 SP= 0.00E+00 SK= 0.00E+00
     1460 T=   752. E= 0.51555585E+04 F= 0.43018587E+04 EK= 0.85370E+03 SP= 0.00E+00 SK= 0.00E+00
     1470 T=   754. E= 0.51555508E+04 F= 0.42993185E+04 EK= 0.85623E+03 SP= 0.00E+00 SK= 0.00E+00
     1480 T=   748. E= 0.51555537E+04 F= 0.43060532E+04 EK= 0.84950E+03 SP= 0.00E+00 SK= 0.00E+00
     1490 T=   742. E= 0.51555648E+04 F= 0.43128061E+04 EK= 0.84276E+03 SP= 0.00E+00 SK= 0.00E+00
     1500 T=   747. E= 0.51555522E+04 F= 0.43066080E+04 EK= 0.84894E+03 SP= 0.00E+00 SK= 0.00E+00
     1510 T=   751. E= 0.51555562E+04 F= 0.43027720E+04 EK= 0.85278E+03 SP= 0.00E+00 SK= 0.00E+00
     1520 T=   753. E= 0.51555597E+04 F= 0.43007055E+04 EK= 0.85485E+03 SP= 0.00E+00 SK= 0.00E+00
     1530 T=   756. E= 0.51555534E+04 F= 0.42972855E+04 EK= 0.85827E+03 SP= 0.00E+00 SK= 0.00E+00
     1540 T=   754. E= 0.51555599E+04 F= 0.42992143E+04 EK= 0.85635E+03 SP= 0.00E+00 SK= 0.00E+00
     1550 T=   753. E= 0.51555592E+04 F= 0.43007336E+04 EK= 0.85483E+03 SP= 0.00E+00 SK= 0.00E+00
     1560 T=   752. E= 0.51555584E+04 F= 0.43015563E+04 EK= 0.85400E+03 SP= 0.00E+00 SK= 0.00E+00
     1570 T=   753. E= 0.51555669E+04 F= 0.43006575E+04 EK= 0.85491E+03 SP= 0.00E+00 SK= 0.00E+00
     1580 T=   762. E= 0.51555584E+04 F= 0.42899592E+04 EK= 0.86560E+03 SP= 0.00E+00 SK= 0.00E+00
     1590 T=   770. E= 0.51555496E+04 F= 0.42808040E+04 EK= 0.87475E+03 SP= 0.00E+00 SK= 0.00E+00
     1600 T=   767. E= 0.51555538E+04 F= 0.42847027E+04 EK= 0.87085E+03 SP= 0.00E+00 SK= 0.00E+00
     1610 T=   757. E= 0.51555605E+04 F= 0.42951853E+04 EK= 0.86038E+03 SP= 0.00E+00 SK= 0.00E+00
     1620 T=   751. E= 0.51555547E+04 F= 0.43021859E+04 EK= 0.85337E+03 SP= 0.00E+00 SK= 0.00E+00
     1630 T=   745. E= 0.51555550E+04 F= 0.43093742E+04 EK= 0.84618E+03 SP= 0.00E+00 SK= 0.00E+00
     1640 T=   739. E= 0.51555601E+04 F= 0.43162438E+04 EK= 0.83932E+03 SP= 0.00E+00 SK= 0.00E+00
     1650 T=   741. E= 0.51555634E+04 F= 0.43139269E+04 EK= 0.84164E+03 SP= 0.00E+00 SK= 0.00E+00
     1660 T=   754. E= 0.51555551E+04 F= 0.42996456E+04 EK= 0.85591E+03 SP= 0.00E+00 SK= 0.00E+00
     1670 T=   764. E= 0.51555515E+04 F= 0.42879171E+04 EK= 0.86763E+03 SP= 0.00E+00 SK= 0.00E+00
     1680 T=   763. E= 0.51555529E+04 F= 0.42885569E+04 EK= 0.86700E+03 SP= 0.00E+00 SK= 0.00E+00
     1690 T=   754. E= 0.51555598E+04 F= 0.42997149E+04 EK= 0.85584E+03 SP= 0.00E+00 SK= 0.00E+00
     1700 T=   744. E= 0.51555620E+04 F= 0.43102938E+04 EK= 0.84527E+03 SP= 0.00E+00 SK= 0.00E+00
     1710 T=   741. E= 0.51555598E+04 F= 0.43142966E+04 EK= 0.84126E+03 SP= 0.00E+00 SK= 0.00E+00
     1720 T=   743. E= 0.51555624E+04 F= 0.43120702E+04 EK= 0.84349E+03 SP= 0.00E+00 SK= 0.00E+00
     1730 T=   752. E= 0.51555531E+04 F= 0.43015345E+04 EK= 0.85402E+03 SP= 0.00E+00 SK= 0.00E+00
     1740 T=   759. E= 0.51555548E+04 F= 0.42934105E+04 EK= 0.86214E+03 SP= 0.00E+00 SK= 0.00E+00
     1750 T=   761. E= 0.51555517E+04 F= 0.42916488E+04 EK= 0.86390E+03 SP= 0.00E+00 SK= 0.00E+00
     1760 T=   753. E= 0.51555575E+04 F= 0.43000240E+04 EK= 0.85553E+03 SP= 0.00E+00 SK= 0.00E+00
     1770 T=   744. E= 0.51555665E+04 F= 0.43106478E+04 EK= 0.84492E+03 SP= 0.00E+00 SK= 0.00E+00
     1780 T=   743. E= 0.51555623E+04 F= 0.43111143E+04 EK= 0.84445E+03 SP= 0.00E+00 SK= 0.00E+00
     1790 T=   748. E= 0.51555558E+04 F= 0.43056373E+04 EK= 0.84992E+03 SP= 0.00E+00 SK= 0.00E+00
     1800 T=   751. E= 0.51555577E+04 F= 0.43030181E+04 EK= 0.85254E+03 SP= 0.00E+00 SK= 0.00E+00
     1810 T=   751. E= 0.51555590E+04 F= 0.43029427E+04 EK= 0.85262E+03 SP= 0.00E+00 SK= 0.00E+00
     1820 T=   753. E= 0.51555603E+04 F= 0.42999562E+04 EK= 0.85560E+03 SP= 0.00E+00 SK= 0.00E+00
     1830 T=   758. E= 0.51555529E+04 F= 0.42944827E+04 EK= 0.86107E+03 SP= 0.00E+00 SK= 0.00E+00
     1840 T=   755. E= 0.51555528E+04 F= 0.42979603E+04 EK= 0.85759E+03 SP= 0.00E+00 SK= 0.00E+00
     1850 T=   746. E= 0.51555629E+04 F= 0.43079141E+04 EK= 0.84765E+03 SP= 0.00E+00 SK= 0.00E+00
     1860 T=   744. E= 0.51555620E+04 F= 0.43099774E+04 EK= 0.84558E+03 SP= 0.00E+00 SK= 0.00E+00
     1870 T=   751. E= 0.51555578E+04 F= 0.43025855E+04 EK= 0.85297E+03 SP= 0.00E+00 SK= 0.00E+00
     1880 T=   758. E= 0.51555517E+04 F= 0.42948697E+04 EK= 0.86068E+03 SP= 0.00E+00 SK= 0.00E+00
     1890 T=   758. E= 0.51555587E+04 F= 0.42949683E+04 EK= 0.86059E+03 SP= 0.00E+00 SK= 0.00E+00
     1900 T=   758. E= 0.51555619E+04 F= 0.42949397E+04 EK= 0.86062E+03 SP= 0.00E+00 SK= 0.00E+00
     1910 T=   760. E= 0.51555489E+04 F= 0.42926627E+04 EK= 0.86289E+03 SP= 0.00E+00 SK= 0.00E+00
     1920 T=   753. E= 0.51555603E+04 F= 0.43006566E+04 EK= 0.85490E+03 SP= 0.00E+00 SK= 0.00E+00
     1930 T=   747. E= 0.51555626E+04 F= 0.43069803E+04 EK= 0.84858E+03 SP= 0.00E+00 SK= 0.00E+00
     1940 T=   748. E= 0.51555564E+04 F= 0.43060834E+04 EK= 0.84947E+03 SP= 0.00E+00 SK= 0.00E+00
     1950 T=   748. E= 0.51555559E+04 F= 0.43062646E+04 EK= 0.84929E+03 SP= 0.00E+00 SK= 0.00E+00
     1960 T=   747. E= 0.51555622E+04 F= 0.43070699E+04 EK= 0.84849E+03 SP= 0.00E+00 SK= 0.00E+00
     1970 T=   752. E= 0.51555604E+04 F= 0.43016685E+04 EK= 0.85389E+03 SP= 0.00E+00 SK= 0.00E+00
     1980 T=   759. E= 0.51555526E+04 F= 0.42933685E+04 EK= 0.86218E+03 SP= 0.00E+00 SK= 0.00E+00
     1990 T=   760. E= 0.51555554E+04 F= 0.42918979E+04 EK= 0.86366E+03 SP= 0.00E+00 SK= 0.00E+00
     2000 T=   756. E= 0.51555517E+04 F= 0.42971706E+04 EK= 0.85838E+03 SP= 0.00E+00 SK= 0.00E+00
     2010 T=   746. E= 0.51555622E+04 F= 0.43082165E+04 EK= 0.84735E+03 SP= 0.00E+00 SK= 0.00E+00
     2020 T=   741. E= 0.51555580E+04 F= 0.43140205E+04 EK= 0.84154E+03 SP= 0.00E+00 SK= 0.00E+00
     2030 T=   740. E= 0.51555632E+04 F= 0.43148054E+04 EK= 0.84076E+03 SP= 0.00E+00 SK= 0.00E+00
     2040 T=   748. E= 0.51555578E+04 F= 0.43062829E+04 EK= 0.84927E+03 SP= 0.00E+00 SK= 0.00E+00
     2050 T=   756. E= 0.51555551E+04 F= 0.42965754E+04 EK= 0.85898E+03 SP= 0.00E+00 SK= 0.00E+00
     2060 T=   761. E= 0.51555563E+04 F= 0.42916762E+04 EK= 0.86388E+03 SP= 0.00E+00 SK= 0.00E+00
     2070 T=   760. E= 0.51555530E+04 F= 0.42918535E+04 EK= 0.86370E+03 SP= 0.00E+00 SK= 0.00E+00
     2080 T=   753. E= 0.51555592E+04 F= 0.42999788E+04 EK= 0.85558E+03 SP= 0.00E+00 SK= 0.00E+00
     2090 T=   748. E= 0.51555618E+04 F= 0.43058994E+04 EK= 0.84966E+03 SP= 0.00E+00 SK= 0.00E+00
     2100 T=   750. E= 0.51555587E+04 F= 0.43039178E+04 EK= 0.85164E+03 SP= 0.00E+00 SK= 0.00E+00
     2110 T=   754. E= 0.51555542E+04 F= 0.42986760E+04 EK= 0.85688E+03 SP= 0.00E+00 SK= 0.00E+00
     2120 T=   756. E= 0.51555566E+04 F= 0.42965682E+04 EK= 0.85899E+03 SP= 0.00E+00 SK= 0.00E+00
     2130 T=   756. E= 0.51555580E+04 F= 0.42968752E+04 EK= 0.85868E+03 SP= 0.00E+00 SK= 0.00E+00
     2140 T=   756. E= 0.51555599E+04 F= 0.42973741E+04 EK= 0.85819E+03 SP= 0.00E+00 SK= 0.00E+00
     2150 T=   758. E= 0.51555602E+04 F= 0.42947617E+04 EK= 0.86080E+03 SP= 0.00E+00 SK= 0.00E+00
     2160 T=   761. E= 0.51555545E+04 F= 0.42909446E+04 EK= 0.86461E+03 SP= 0.00E+00 SK= 0.00E+00
     2170 T=   759. E= 0.51555550E+04 F= 0.42932864E+04 EK= 0.86227E+03 SP= 0.00E+00 SK= 0.00E+00
     2180 T=   753. E= 0.51555590E+04 F= 0.43006861E+04 EK= 0.85487E+03 SP= 0.00E+00 SK= 0.00E+00
     2190 T=   749. E= 0.51555609E+04 F= 0.43050223E+04 EK= 0.85054E+03 SP= 0.00E+00 SK= 0.00E+00
     2200 T=   749. E= 0.51555550E+04 F= 0.43047233E+04 EK= 0.85083E+03 SP= 0.00E+00 SK= 0.00E+00
     2210 T=   747. E= 0.51555623E+04 F= 0.43072525E+04 EK= 0.84831E+03 SP= 0.00E+00 SK= 0.00E+00
     2220 T=   750. E= 0.51555641E+04 F= 0.43039481E+04 EK= 0.85162E+03 SP= 0.00E+00 SK= 0.00E+00
     2230 T=   759. E= 0.51555515E+04 F= 0.42937008E+04 EK= 0.86185E+03 SP= 0.00E+00 SK= 0.00E+00
     2240 T=   760. E= 0.51555503E+04 F= 0.42920940E+04 EK= 0.86346E+03 SP= 0.00E+00 SK= 0.00E+00
     2250 T=   753. E= 0.51555594E+04 F= 0.43001837E+04 EK= 0.85538E+03 SP= 0.00E+00 SK= 0.00E+00
     2260 T=   748. E= 0.51555598E+04 F= 0.43059028E+04 EK= 0.84966E+03 SP= 0.00E+00 SK= 0.00E+00
     2270 T=   748. E= 0.51555625E+04 F= 0.43058368E+04 EK= 0.84973E+03 SP= 0.00E+00 SK= 0.00E+00
     2280 T=   755. E= 0.51555568E+04 F= 0.42974532E+04 EK= 0.85810E+03 SP= 0.00E+00 SK= 0.00E+00
     2290 T=   761. E= 0.51555499E+04 F= 0.42908773E+04 EK= 0.86467E+03 SP= 0.00E+00 SK= 0.00E+00
     2300 T=   757. E= 0.51555613E+04 F= 0.42960773E+04 EK= 0.85948E+03 SP= 0.00E+00 SK= 0.00E+00
     2310 T=   754. E= 0.51555635E+04 F= 0.42986133E+04 EK= 0.85695E+03 SP= 0.00E+00 SK= 0.00E+00
     2320 T=   757. E= 0.51555544E+04 F= 0.42960565E+04 EK= 0.85950E+03 SP= 0.00E+00 SK= 0.00E+00
     2330 T=   756. E= 0.51555597E+04 F= 0.42973926E+04 EK= 0.85817E+03 SP= 0.00E+00 SK= 0.00E+00
     2340 T=   756. E= 0.51555591E+04 F= 0.42965321E+04 EK= 0.85903E+03 SP= 0.00E+00 SK= 0.00E+00
     2350 T=   758. E= 0.51555507E+04 F= 0.42946984E+04 EK= 0.86085E+03 SP= 0.00E+00 SK= 0.00E+00
     2360 T=   754. E= 0.51555611E+04 F= 0.42992174E+04 EK= 0.85634E+03 SP= 0.00E+00 SK= 0.00E+00
