 running on   40 nodes
 distr:  one band on    1 nodes,   40 groups
 md.x 0.99
 POSCAR found :  1 types and     8788 ions
Rc and Rl:   5.500000  7.500000
 TIPO = eam     
 TIPO1 = uknown p
 Using EAM

 EAM parameters: 
 C  =   4.0539  EPS  = 0.0057  A  = 4.3418  M  = 6.782  N  =  7.748  R1 =   5.500000


 ----------------------------------------------------------------------------- 
|                                                                             |
|           W    W    AA    RRRRR   N    N  II  N    N   GGGG   !!!           |
|           W    W   A  A   R    R  NN   N  II  NN   N  G    G  !!!           |
|           W    W  A    A  R    R  N N  N  II  N N  N  G       !!!           |
|           W WW W  AAAAAA  RRRRR   N  N N  II  N  N N  G  GGG   !            |
|           WW  WW  A    A  R   R   N   NN  II  N   NN  G    G                |
|           W    W  A    A  R    R  N    N  II  N    N   GGGG   !!!           |
|                                                                             |
|      VASP found  26361 degrees of freedom                                   |
|      the temperature will equal 2*E(kin)/ (degrees of freedom)              |
|      this differs from previous releases, where T was 2*E(kin)/(3 NIONS).   |
|      The new definition is more consistent                                  |
|                                                                             |
 ----------------------------------------------------------------------------- 

 Random init:       19726       27297
 Random init:       19726       27297
 Random init:       19726       27297
 Random init:       19726       27297
 Random init:       19726       27297
 Random init:       19726       27297
 Random init:       19726       27297
 Random init:       19726       27297
 Random init:       19726       27297
 Random init:       19726       27297
 Random init:       19726       27297
 Random init:       19726       27297
 Random init:       19726       27297
 Random init:       19726       27297
 Random init:       19726       27297
 Random init:       19726       27297
 Random init:       19726       27297
 Random init:       19726       27297
 Random init:       19726       27297
 Random init:       19726       27297
 Random init:       19726       27297
 Random init:       19726       27297
 Random init:       19726       27297
 Random init:       19726       27297
 Random init:       19726       27297
 Random init:       19726       27297
 Random init:       19726       27297
 Random init:       19726       27297
 Random init:       19726       27297
 Random init:       19726       27297
 Random init:       19726       27297
 Random init:       19726       27297
 Random init:       19726       27297
 Random init:       19726       27297
 Random init:       19726       27297
 Random init:       19726       27297
 Random init:       19726       27297
 Random init:       19726       27297
 Random init:       19726       27297
 Random init:       19726       27297
 alloco spazio per displ
       10 T=  5424. E= 0.97842445E+04 F= 0.36235021E+04 EK= 0.61607E+04 SP= 0.00E+00 SK= 0.00E+00
       20 T=  4051. E= 0.97857996E+04 F= 0.51844168E+04 EK= 0.46014E+04 SP= 0.00E+00 SK= 0.00E+00
       30 T=  3649. E= 0.97850044E+04 F= 0.56408206E+04 EK= 0.41442E+04 SP= 0.00E+00 SK= 0.00E+00
       40 T=  3767. E= 0.97848304E+04 F= 0.55059675E+04 EK= 0.42789E+04 SP= 0.00E+00 SK= 0.00E+00
       50 T=  3821. E= 0.97848789E+04 F= 0.54450653E+04 EK= 0.43398E+04 SP= 0.00E+00 SK= 0.00E+00
       60 T=  3815. E= 0.97848990E+04 F= 0.54514853E+04 EK= 0.43334E+04 SP= 0.00E+00 SK= 0.00E+00
       70 T=  3815. E= 0.97848711E+04 F= 0.54515668E+04 EK= 0.43333E+04 SP= 0.00E+00 SK= 0.00E+00
       80 T=  3833. E= 0.97848526E+04 F= 0.54310461E+04 EK= 0.43538E+04 SP= 0.00E+00 SK= 0.00E+00
       90 T=  3833. E= 0.97848629E+04 F= 0.54309592E+04 EK= 0.43539E+04 SP= 0.00E+00 SK= 0.00E+00
      100 T=  3773. E= 0.97848055E+04 F= 0.54994968E+04 EK= 0.42853E+04 SP= 0.00E+00 SK= 0.00E+00
      110 T=  3747. E= 0.97848890E+04 F= 0.55285294E+04 EK= 0.42564E+04 SP= 0.00E+00 SK= 0.00E+00
      120 T=  3799. E= 0.97848583E+04 F= 0.54704648E+04 EK= 0.43144E+04 SP= 0.00E+00 SK= 0.00E+00
      130 T=  3795. E= 0.97847961E+04 F= 0.54741027E+04 EK= 0.43107E+04 SP= 0.00E+00 SK= 0.00E+00
      140 T=  3769. E= 0.97848481E+04 F= 0.55043076E+04 EK= 0.42805E+04 SP= 0.00E+00 SK= 0.00E+00
      150 T=  3798. E= 0.97848401E+04 F= 0.54712100E+04 EK= 0.43136E+04 SP= 0.00E+00 SK= 0.00E+00
      160 T=  3798. E= 0.97847409E+04 F= 0.54704238E+04 EK= 0.43143E+04 SP= 0.00E+00 SK= 0.00E+00
      170 T=  3786. E= 0.97849024E+04 F= 0.54846051E+04 EK= 0.43003E+04 SP= 0.00E+00 SK= 0.00E+00
      180 T=  3841. E= 0.97847719E+04 F= 0.54219253E+04 EK= 0.43628E+04 SP= 0.00E+00 SK= 0.00E+00
      190 T=  3813. E= 0.97847399E+04 F= 0.54534727E+04 EK= 0.43313E+04 SP= 0.00E+00 SK= 0.00E+00
      200 T=  3766. E= 0.97848621E+04 F= 0.55069486E+04 EK= 0.42779E+04 SP= 0.00E+00 SK= 0.00E+00
      210 T=  3802. E= 0.97848068E+04 F= 0.54667881E+04 EK= 0.43180E+04 SP= 0.00E+00 SK= 0.00E+00
      220 T=  3780. E= 0.97849084E+04 F= 0.54913242E+04 EK= 0.42936E+04 SP= 0.00E+00 SK= 0.00E+00
      230 T=  3748. E= 0.97849088E+04 F= 0.55283478E+04 EK= 0.42566E+04 SP= 0.00E+00 SK= 0.00E+00
      240 T=  3768. E= 0.97848385E+04 F= 0.55055410E+04 EK= 0.42793E+04 SP= 0.00E+00 SK= 0.00E+00
      250 T=  3811. E= 0.97847569E+04 F= 0.54565780E+04 EK= 0.43282E+04 SP= 0.00E+00 SK= 0.00E+00
      260 T=  3796. E= 0.97847990E+04 F= 0.54732718E+04 EK= 0.43115E+04 SP= 0.00E+00 SK= 0.00E+00
      270 T=  3801. E= 0.97847856E+04 F= 0.54671405E+04 EK= 0.43176E+04 SP= 0.00E+00 SK= 0.00E+00
      280 T=  3811. E= 0.97848170E+04 F= 0.54558459E+04 EK= 0.43290E+04 SP= 0.00E+00 SK= 0.00E+00
      290 T=  3817. E= 0.97847921E+04 F= 0.54499239E+04 EK= 0.43349E+04 SP= 0.00E+00 SK= 0.00E+00
      300 T=  3805. E= 0.97848201E+04 F= 0.54631059E+04 EK= 0.43217E+04 SP= 0.00E+00 SK= 0.00E+00
      310 T=  3795. E= 0.97848347E+04 F= 0.54746514E+04 EK= 0.43102E+04 SP= 0.00E+00 SK= 0.00E+00
      320 T=  3778. E= 0.97847979E+04 F= 0.54934639E+04 EK= 0.42913E+04 SP= 0.00E+00 SK= 0.00E+00
      330 T=  3728. E= 0.97848613E+04 F= 0.55510464E+04 EK= 0.42338E+04 SP= 0.00E+00 SK= 0.00E+00
      340 T=  3760. E= 0.97847994E+04 F= 0.55137817E+04 EK= 0.42710E+04 SP= 0.00E+00 SK= 0.00E+00
      350 T=  3785. E= 0.97848498E+04 F= 0.54855577E+04 EK= 0.42993E+04 SP= 0.00E+00 SK= 0.00E+00
      360 T=  3825. E= 0.97847333E+04 F= 0.54399518E+04 EK= 0.43448E+04 SP= 0.00E+00 SK= 0.00E+00
      370 T=  3815. E= 0.97848797E+04 F= 0.54515521E+04 EK= 0.43333E+04 SP= 0.00E+00 SK= 0.00E+00
      380 T=  3841. E= 0.97848086E+04 F= 0.54220873E+04 EK= 0.43627E+04 SP= 0.00E+00 SK= 0.00E+00
      390 T=  3857. E= 0.97848599E+04 F= 0.54036799E+04 EK= 0.43812E+04 SP= 0.00E+00 SK= 0.00E+00
      400 T=  3847. E= 0.97848205E+04 F= 0.54153388E+04 EK= 0.43695E+04 SP= 0.00E+00 SK= 0.00E+00
      410 T=  3816. E= 0.97849370E+04 F= 0.54506256E+04 EK= 0.43343E+04 SP= 0.00E+00 SK= 0.00E+00
      420 T=  3836. E= 0.97848192E+04 F= 0.54276759E+04 EK= 0.43571E+04 SP= 0.00E+00 SK= 0.00E+00
      430 T=  3820. E= 0.97848414E+04 F= 0.54464009E+04 EK= 0.43384E+04 SP= 0.00E+00 SK= 0.00E+00
      440 T=  3795. E= 0.97848206E+04 F= 0.54739610E+04 EK= 0.43109E+04 SP= 0.00E+00 SK= 0.00E+00
      450 T=  3772. E= 0.97849065E+04 F= 0.55001797E+04 EK= 0.42847E+04 SP= 0.00E+00 SK= 0.00E+00
      460 T=  3817. E= 0.97847236E+04 F= 0.54496192E+04 EK= 0.43351E+04 SP= 0.00E+00 SK= 0.00E+00
Randomizing velocities, T = 12000.
      470 T=  5938. E= 0.12275659E+05 F= 0.55316166E+04 EK= 0.67440E+04 SP= 0.00E+00 SK= 0.00E+00
      480 T=  5497. E= 0.12276376E+05 F= 0.60330480E+04 EK= 0.62433E+04 SP= 0.00E+00 SK= 0.00E+00
      490 T=  5398. E= 0.12275758E+05 F= 0.61447753E+04 EK= 0.61310E+04 SP= 0.00E+00 SK= 0.00E+00
      500 T=  5367. E= 0.12275762E+05 F= 0.61803905E+04 EK= 0.60954E+04 SP= 0.00E+00 SK= 0.00E+00
      510 T=  5328. E= 0.12275947E+05 F= 0.62241238E+04 EK= 0.60518E+04 SP= 0.00E+00 SK= 0.00E+00
      520 T=  5433. E= 0.12275880E+05 F= 0.61054195E+04 EK= 0.61705E+04 SP= 0.00E+00 SK= 0.00E+00
      530 T=  5414. E= 0.12276020E+05 F= 0.61265995E+04 EK= 0.61494E+04 SP= 0.00E+00 SK= 0.00E+00
      540 T=  5356. E= 0.12276101E+05 F= 0.61928621E+04 EK= 0.60832E+04 SP= 0.00E+00 SK= 0.00E+00
      550 T=  5430. E= 0.12275796E+05 F= 0.61084616E+04 EK= 0.61673E+04 SP= 0.00E+00 SK= 0.00E+00
      560 T=  5439. E= 0.12275914E+05 F= 0.60978534E+04 EK= 0.61781E+04 SP= 0.00E+00 SK= 0.00E+00
      570 T=  5415. E= 0.12275925E+05 F= 0.61259645E+04 EK= 0.61500E+04 SP= 0.00E+00 SK= 0.00E+00
      580 T=  5399. E= 0.12275922E+05 F= 0.61432467E+04 EK= 0.61327E+04 SP= 0.00E+00 SK= 0.00E+00
      590 T=  5414. E= 0.12275787E+05 F= 0.61261303E+04 EK= 0.61497E+04 SP= 0.00E+00 SK= 0.00E+00
Randomizing velocities, T = 12000.
      600 T=  6055. E= 0.13030856E+05 F= 0.61532691E+04 EK= 0.68776E+04 SP= 0.00E+00 SK= 0.00E+00
      610 T=  5929. E= 0.13031054E+05 F= 0.62968139E+04 EK= 0.67342E+04 SP= 0.00E+00 SK= 0.00E+00
      620 T=  5934. E= 0.13030592E+05 F= 0.62909396E+04 EK= 0.67397E+04 SP= 0.00E+00 SK= 0.00E+00
      630 T=  5897. E= 0.13030797E+05 F= 0.63329088E+04 EK= 0.66979E+04 SP= 0.00E+00 SK= 0.00E+00
      640 T=  5952. E= 0.13030812E+05 F= 0.62702126E+04 EK= 0.67606E+04 SP= 0.00E+00 SK= 0.00E+00
      650 T=  5907. E= 0.13031173E+05 F= 0.63219857E+04 EK= 0.67092E+04 SP= 0.00E+00 SK= 0.00E+00
      660 T=  5919. E= 0.13030584E+05 F= 0.63079712E+04 EK= 0.67226E+04 SP= 0.00E+00 SK= 0.00E+00
      670 T=  5890. E= 0.13030866E+05 F= 0.63409470E+04 EK= 0.66899E+04 SP= 0.00E+00 SK= 0.00E+00
      680 T=  5969. E= 0.13030841E+05 F= 0.62510107E+04 EK= 0.67798E+04 SP= 0.00E+00 SK= 0.00E+00
      690 T=  5890. E= 0.13031076E+05 F= 0.63408675E+04 EK= 0.66902E+04 SP= 0.00E+00 SK= 0.00E+00
      700 T=  5933. E= 0.13030554E+05 F= 0.62918755E+04 EK= 0.67387E+04 SP= 0.00E+00 SK= 0.00E+00
      710 T=  5930. E= 0.13030953E+05 F= 0.62950822E+04 EK= 0.67359E+04 SP= 0.00E+00 SK= 0.00E+00
      720 T=  5917. E= 0.13030931E+05 F= 0.63099536E+04 EK= 0.67210E+04 SP= 0.00E+00 SK= 0.00E+00
      730 T=  5870. E= 0.13030999E+05 F= 0.63632050E+04 EK= 0.66678E+04 SP= 0.00E+00 SK= 0.00E+00
      740 T=  5933. E= 0.13030892E+05 F= 0.62919982E+04 EK= 0.67389E+04 SP= 0.00E+00 SK= 0.00E+00
      750 T=  5968. E= 0.13030919E+05 F= 0.62527628E+04 EK= 0.67782E+04 SP= 0.00E+00 SK= 0.00E+00
      760 T=  5975. E= 0.13030739E+05 F= 0.62440848E+04 EK= 0.67867E+04 SP= 0.00E+00 SK= 0.00E+00
      770 T=  5932. E= 0.13030792E+05 F= 0.62935185E+04 EK= 0.67373E+04 SP= 0.00E+00 SK= 0.00E+00
      780 T=  5997. E= 0.13030648E+05 F= 0.62190429E+04 EK= 0.68116E+04 SP= 0.00E+00 SK= 0.00E+00
      790 T=  5952. E= 0.13030878E+05 F= 0.62699640E+04 EK= 0.67609E+04 SP= 0.00E+00 SK= 0.00E+00
      800 T=  5941. E= 0.13030763E+05 F= 0.62828438E+04 EK= 0.67479E+04 SP= 0.00E+00 SK= 0.00E+00
      810 T=  5865. E= 0.13030999E+05 F= 0.63693183E+04 EK= 0.66617E+04 SP= 0.00E+00 SK= 0.00E+00
      820 T=  5918. E= 0.13030856E+05 F= 0.63095850E+04 EK= 0.67213E+04 SP= 0.00E+00 SK= 0.00E+00
      830 T=  5886. E= 0.13030630E+05 F= 0.63447523E+04 EK= 0.66859E+04 SP= 0.00E+00 SK= 0.00E+00
      840 T=  5906. E= 0.13030799E+05 F= 0.63231463E+04 EK= 0.67077E+04 SP= 0.00E+00 SK= 0.00E+00
      850 T=  5918. E= 0.13030856E+05 F= 0.63091522E+04 EK= 0.67217E+04 SP= 0.00E+00 SK= 0.00E+00
      860 T=  5879. E= 0.13030801E+05 F= 0.63534753E+04 EK= 0.66773E+04 SP= 0.00E+00 SK= 0.00E+00
      870 T=  5911. E= 0.13030646E+05 F= 0.63166670E+04 EK= 0.67140E+04 SP= 0.00E+00 SK= 0.00E+00
      880 T=  5873. E= 0.13030970E+05 F= 0.63604180E+04 EK= 0.66706E+04 SP= 0.00E+00 SK= 0.00E+00
      890 T=  5861. E= 0.13030997E+05 F= 0.63741427E+04 EK= 0.66569E+04 SP= 0.00E+00 SK= 0.00E+00
      900 T=  5861. E= 0.13030706E+05 F= 0.63733850E+04 EK= 0.66573E+04 SP= 0.00E+00 SK= 0.00E+00
      910 T=  5858. E= 0.13030847E+05 F= 0.63774933E+04 EK= 0.66534E+04 SP= 0.00E+00 SK= 0.00E+00
      920 T=  5887. E= 0.13030853E+05 F= 0.63446435E+04 EK= 0.66862E+04 SP= 0.00E+00 SK= 0.00E+00
      930 T=  5911. E= 0.13030727E+05 F= 0.63174553E+04 EK= 0.67133E+04 SP= 0.00E+00 SK= 0.00E+00
      940 T=  5946. E= 0.13030799E+05 F= 0.62769138E+04 EK= 0.67539E+04 SP= 0.00E+00 SK= 0.00E+00
      950 T=  5958. E= 0.13030829E+05 F= 0.62637118E+04 EK= 0.67671E+04 SP= 0.00E+00 SK= 0.00E+00
      960 T=  5966. E= 0.13030802E+05 F= 0.62544541E+04 EK= 0.67763E+04 SP= 0.00E+00 SK= 0.00E+00
      970 T=  5942. E= 0.13030999E+05 F= 0.62822823E+04 EK= 0.67487E+04 SP= 0.00E+00 SK= 0.00E+00
      980 T=  5883. E= 0.13030943E+05 F= 0.63487555E+04 EK= 0.66822E+04 SP= 0.00E+00 SK= 0.00E+00
      990 T=  5874. E= 0.13030804E+05 F= 0.63590385E+04 EK= 0.66718E+04 SP= 0.00E+00 SK= 0.00E+00
     1000 T=  5902. E= 0.13030793E+05 F= 0.63273406E+04 EK= 0.67035E+04 SP= 0.00E+00 SK= 0.00E+00
     1010 T=  5892. E= 0.13030875E+05 F= 0.63389997E+04 EK= 0.66919E+04 SP= 0.00E+00 SK= 0.00E+00
     1020 T=  5921. E= 0.13030660E+05 F= 0.63053157E+04 EK= 0.67253E+04 SP= 0.00E+00 SK= 0.00E+00
     1030 T=  5901. E= 0.13030722E+05 F= 0.63278893E+04 EK= 0.67028E+04 SP= 0.00E+00 SK= 0.00E+00
     1040 T=  5859. E= 0.13030823E+05 F= 0.63756261E+04 EK= 0.66552E+04 SP= 0.00E+00 SK= 0.00E+00
Randomizing velocities, T = 12000.
     1050 T=  6063. E= 0.13277560E+05 F= 0.63911804E+04 EK= 0.68864E+04 SP= 0.00E+00 SK= 0.00E+00
     1060 T=  6079. E= 0.13277729E+05 F= 0.63733884E+04 EK= 0.69043E+04 SP= 0.00E+00 SK= 0.00E+00
     1070 T=  6098. E= 0.13277564E+05 F= 0.63517063E+04 EK= 0.69259E+04 SP= 0.00E+00 SK= 0.00E+00
     1080 T=  6136. E= 0.13277591E+05 F= 0.63084984E+04 EK= 0.69691E+04 SP= 0.00E+00 SK= 0.00E+00
     1090 T=  6090. E= 0.13277593E+05 F= 0.63602631E+04 EK= 0.69173E+04 SP= 0.00E+00 SK= 0.00E+00
     1100 T=  6016. E= 0.13277760E+05 F= 0.64448431E+04 EK= 0.68329E+04 SP= 0.00E+00 SK= 0.00E+00
     1110 T=  6022. E= 0.13277611E+05 F= 0.64379698E+04 EK= 0.68396E+04 SP= 0.00E+00 SK= 0.00E+00
     1120 T=  6056. E= 0.13277663E+05 F= 0.63988932E+04 EK= 0.68788E+04 SP= 0.00E+00 SK= 0.00E+00
     1130 T=  6095. E= 0.13277381E+05 F= 0.63544970E+04 EK= 0.69229E+04 SP= 0.00E+00 SK= 0.00E+00
     1140 T=  6025. E= 0.13277791E+05 F= 0.64348595E+04 EK= 0.68429E+04 SP= 0.00E+00 SK= 0.00E+00
     1150 T=  6014. E= 0.13277870E+05 F= 0.64475098E+04 EK= 0.68304E+04 SP= 0.00E+00 SK= 0.00E+00
     1160 T=  6080. E= 0.13277579E+05 F= 0.63721128E+04 EK= 0.69055E+04 SP= 0.00E+00 SK= 0.00E+00
     1170 T=  6078. E= 0.13277835E+05 F= 0.63745345E+04 EK= 0.69033E+04 SP= 0.00E+00 SK= 0.00E+00
     1180 T=  6127. E= 0.13277670E+05 F= 0.63185003E+04 EK= 0.69592E+04 SP= 0.00E+00 SK= 0.00E+00
     1190 T=  6114. E= 0.13277801E+05 F= 0.63335834E+04 EK= 0.69442E+04 SP= 0.00E+00 SK= 0.00E+00
     1200 T=  6117. E= 0.13277727E+05 F= 0.63300078E+04 EK= 0.69477E+04 SP= 0.00E+00 SK= 0.00E+00
     1210 T=  6134. E= 0.13277579E+05 F= 0.63104919E+04 EK= 0.69671E+04 SP= 0.00E+00 SK= 0.00E+00
     1220 T=  6068. E= 0.13277937E+05 F= 0.63859358E+04 EK= 0.68920E+04 SP= 0.00E+00 SK= 0.00E+00
     1230 T=  6097. E= 0.13277752E+05 F= 0.63528468E+04 EK= 0.69249E+04 SP= 0.00E+00 SK= 0.00E+00
     1240 T=  6112. E= 0.13277484E+05 F= 0.63352873E+04 EK= 0.69422E+04 SP= 0.00E+00 SK= 0.00E+00
     1250 T=  6075. E= 0.13277689E+05 F= 0.63779480E+04 EK= 0.68997E+04 SP= 0.00E+00 SK= 0.00E+00
     1260 T=  6051. E= 0.13277506E+05 F= 0.64043750E+04 EK= 0.68731E+04 SP= 0.00E+00 SK= 0.00E+00
     1270 T=  6066. E= 0.13277570E+05 F= 0.63872639E+04 EK= 0.68903E+04 SP= 0.00E+00 SK= 0.00E+00
     1280 T=  6056. E= 0.13277573E+05 F= 0.63985311E+04 EK= 0.68790E+04 SP= 0.00E+00 SK= 0.00E+00
     1290 T=  6039. E= 0.13277752E+05 F= 0.64182015E+04 EK= 0.68596E+04 SP= 0.00E+00 SK= 0.00E+00
     1300 T=  6079. E= 0.13277759E+05 F= 0.63734902E+04 EK= 0.69043E+04 SP= 0.00E+00 SK= 0.00E+00
     1310 T=  6078. E= 0.13277832E+05 F= 0.63737910E+04 EK= 0.69040E+04 SP= 0.00E+00 SK= 0.00E+00
     1320 T=  6091. E= 0.13277529E+05 F= 0.63589546E+04 EK= 0.69186E+04 SP= 0.00E+00 SK= 0.00E+00
     1330 T=  6113. E= 0.13277762E+05 F= 0.63342658E+04 EK= 0.69435E+04 SP= 0.00E+00 SK= 0.00E+00
     1340 T=  6126. E= 0.13277561E+05 F= 0.63196544E+04 EK= 0.69579E+04 SP= 0.00E+00 SK= 0.00E+00
     1350 T=  6086. E= 0.13277775E+05 F= 0.63656338E+04 EK= 0.69121E+04 SP= 0.00E+00 SK= 0.00E+00
Randomizing velocities, T = 12000.
     1360 T=  6011. E= 0.13149224E+05 F= 0.63217353E+04 EK= 0.68275E+04 SP= 0.00E+00 SK= 0.00E+00
     1370 T=  6015. E= 0.13149504E+05 F= 0.63175735E+04 EK= 0.68319E+04 SP= 0.00E+00 SK= 0.00E+00
     1380 T=  5995. E= 0.13149392E+05 F= 0.63406857E+04 EK= 0.68087E+04 SP= 0.00E+00 SK= 0.00E+00
     1390 T=  5991. E= 0.13149455E+05 F= 0.63452281E+04 EK= 0.68042E+04 SP= 0.00E+00 SK= 0.00E+00
     1400 T=  6018. E= 0.13149120E+05 F= 0.63136845E+04 EK= 0.68354E+04 SP= 0.00E+00 SK= 0.00E+00
     1410 T=  6005. E= 0.13148950E+05 F= 0.63286444E+04 EK= 0.68203E+04 SP= 0.00E+00 SK= 0.00E+00
     1420 T=  5975. E= 0.13149235E+05 F= 0.63627946E+04 EK= 0.67864E+04 SP= 0.00E+00 SK= 0.00E+00
     1430 T=  5979. E= 0.13149028E+05 F= 0.63582899E+04 EK= 0.67907E+04 SP= 0.00E+00 SK= 0.00E+00
     1440 T=  5963. E= 0.13149145E+05 F= 0.63758645E+04 EK= 0.67733E+04 SP= 0.00E+00 SK= 0.00E+00
     1450 T=  5998. E= 0.13149211E+05 F= 0.63362782E+04 EK= 0.68129E+04 SP= 0.00E+00 SK= 0.00E+00
     1460 T=  5990. E= 0.13149435E+05 F= 0.63461713E+04 EK= 0.68033E+04 SP= 0.00E+00 SK= 0.00E+00
Randomizing velocities, T = 12000.
     1470 T=  5982. E= 0.13109422E+05 F= 0.63155442E+04 EK= 0.67939E+04 SP= 0.00E+00 SK= 0.00E+00
     1480 T=  5968. E= 0.13109565E+05 F= 0.63306371E+04 EK= 0.67789E+04 SP= 0.00E+00 SK= 0.00E+00
     1490 T=  5943. E= 0.13109594E+05 F= 0.63589934E+04 EK= 0.67506E+04 SP= 0.00E+00 SK= 0.00E+00
     1500 T=  5958. E= 0.13109494E+05 F= 0.63420774E+04 EK= 0.67674E+04 SP= 0.00E+00 SK= 0.00E+00
     1510 T=  5989. E= 0.13109483E+05 F= 0.63068559E+04 EK= 0.68026E+04 SP= 0.00E+00 SK= 0.00E+00
     1520 T=  6035. E= 0.13109451E+05 F= 0.62547865E+04 EK= 0.68547E+04 SP= 0.00E+00 SK= 0.00E+00
     1530 T=  6063. E= 0.13109539E+05 F= 0.62230992E+04 EK= 0.68864E+04 SP= 0.00E+00 SK= 0.00E+00
     1540 T=  6001. E= 0.13109538E+05 F= 0.62930470E+04 EK= 0.68165E+04 SP= 0.00E+00 SK= 0.00E+00
     1550 T=  5920. E= 0.13109715E+05 F= 0.63862033E+04 EK= 0.67235E+04 SP= 0.00E+00 SK= 0.00E+00
     1560 T=  5986. E= 0.13109634E+05 F= 0.63107699E+04 EK= 0.67989E+04 SP= 0.00E+00 SK= 0.00E+00
     1570 T=  5993. E= 0.13109381E+05 F= 0.63019066E+04 EK= 0.68075E+04 SP= 0.00E+00 SK= 0.00E+00
     1580 T=  5917. E= 0.13109501E+05 F= 0.63891961E+04 EK= 0.67203E+04 SP= 0.00E+00 SK= 0.00E+00
     1590 T=  5888. E= 0.13109607E+05 F= 0.64218397E+04 EK= 0.66878E+04 SP= 0.00E+00 SK= 0.00E+00
     1600 T=  5976. E= 0.13109423E+05 F= 0.63220599E+04 EK= 0.67874E+04 SP= 0.00E+00 SK= 0.00E+00
     1610 T=  5974. E= 0.13109635E+05 F= 0.63237727E+04 EK= 0.67859E+04 SP= 0.00E+00 SK= 0.00E+00
     1620 T=  5924. E= 0.13109425E+05 F= 0.63810415E+04 EK= 0.67284E+04 SP= 0.00E+00 SK= 0.00E+00
     1630 T=  5908. E= 0.13109380E+05 F= 0.63993573E+04 EK= 0.67100E+04 SP= 0.00E+00 SK= 0.00E+00
     1640 T=  5984. E= 0.13109473E+05 F= 0.63132008E+04 EK= 0.67963E+04 SP= 0.00E+00 SK= 0.00E+00
     1650 T=  5996. E= 0.13109503E+05 F= 0.62995027E+04 EK= 0.68100E+04 SP= 0.00E+00 SK= 0.00E+00
     1660 T=  6001. E= 0.13109575E+05 F= 0.62935818E+04 EK= 0.68160E+04 SP= 0.00E+00 SK= 0.00E+00
     1670 T=  5933. E= 0.13109571E+05 F= 0.63712603E+04 EK= 0.67383E+04 SP= 0.00E+00 SK= 0.00E+00
     1680 T=  5914. E= 0.13109590E+05 F= 0.63929317E+04 EK= 0.67167E+04 SP= 0.00E+00 SK= 0.00E+00
     1690 T=  5945. E= 0.13109283E+05 F= 0.63565149E+04 EK= 0.67528E+04 SP= 0.00E+00 SK= 0.00E+00
     1700 T=  5887. E= 0.13109526E+05 F= 0.64228878E+04 EK= 0.66866E+04 SP= 0.00E+00 SK= 0.00E+00
     1710 T=  5987. E= 0.13109262E+05 F= 0.63093770E+04 EK= 0.67999E+04 SP= 0.00E+00 SK= 0.00E+00
     1720 T=  5921. E= 0.13109597E+05 F= 0.63845992E+04 EK= 0.67250E+04 SP= 0.00E+00 SK= 0.00E+00
     1730 T=  5958. E= 0.13109311E+05 F= 0.63417703E+04 EK= 0.67675E+04 SP= 0.00E+00 SK= 0.00E+00
     1740 T=  5993. E= 0.13109566E+05 F= 0.63030711E+04 EK= 0.68065E+04 SP= 0.00E+00 SK= 0.00E+00
     1750 T=  6019. E= 0.13109745E+05 F= 0.62736435E+04 EK= 0.68361E+04 SP= 0.00E+00 SK= 0.00E+00
     1760 T=  6051. E= 0.13109322E+05 F= 0.62359965E+04 EK= 0.68733E+04 SP= 0.00E+00 SK= 0.00E+00
     1770 T=  5934. E= 0.13109729E+05 F= 0.63694110E+04 EK= 0.67403E+04 SP= 0.00E+00 SK= 0.00E+00
     1780 T=  5921. E= 0.13109551E+05 F= 0.63839902E+04 EK= 0.67256E+04 SP= 0.00E+00 SK= 0.00E+00
     1790 T=  5952. E= 0.13109596E+05 F= 0.63487760E+04 EK= 0.67608E+04 SP= 0.00E+00 SK= 0.00E+00
     1800 T=  5952. E= 0.13109579E+05 F= 0.63496824E+04 EK= 0.67599E+04 SP= 0.00E+00 SK= 0.00E+00
     1810 T=  6052. E= 0.13109505E+05 F= 0.62351386E+04 EK= 0.68744E+04 SP= 0.00E+00 SK= 0.00E+00
     1820 T=  6048. E= 0.13109627E+05 F= 0.62398055E+04 EK= 0.68698E+04 SP= 0.00E+00 SK= 0.00E+00
     1830 T=  5957. E= 0.13109628E+05 F= 0.63437917E+04 EK= 0.67658E+04 SP= 0.00E+00 SK= 0.00E+00
     1840 T=  6016. E= 0.13109381E+05 F= 0.62768010E+04 EK= 0.68326E+04 SP= 0.00E+00 SK= 0.00E+00
     1850 T=  5983. E= 0.13109467E+05 F= 0.63134633E+04 EK= 0.67960E+04 SP= 0.00E+00 SK= 0.00E+00
     1860 T=  5927. E= 0.13109475E+05 F= 0.63771718E+04 EK= 0.67323E+04 SP= 0.00E+00 SK= 0.00E+00
     1870 T=  5951. E= 0.13109236E+05 F= 0.63502104E+04 EK= 0.67590E+04 SP= 0.00E+00 SK= 0.00E+00
     1880 T=  5944. E= 0.13109358E+05 F= 0.63584987E+04 EK= 0.67509E+04 SP= 0.00E+00 SK= 0.00E+00
     1890 T=  5965. E= 0.13109433E+05 F= 0.63340339E+04 EK= 0.67754E+04 SP= 0.00E+00 SK= 0.00E+00
     1900 T=  5952. E= 0.13109319E+05 F= 0.63493287E+04 EK= 0.67600E+04 SP= 0.00E+00 SK= 0.00E+00
Randomizing velocities, T = 12000.
     1910 T=  5990. E= 0.13170353E+05 F= 0.63667161E+04 EK= 0.68036E+04 SP= 0.00E+00 SK= 0.00E+00
     1920 T=  6098. E= 0.13170343E+05 F= 0.62439668E+04 EK= 0.69264E+04 SP= 0.00E+00 SK= 0.00E+00
     1930 T=  6050. E= 0.13170388E+05 F= 0.62985878E+04 EK= 0.68718E+04 SP= 0.00E+00 SK= 0.00E+00
     1940 T=  6029. E= 0.13170104E+05 F= 0.63217565E+04 EK= 0.68483E+04 SP= 0.00E+00 SK= 0.00E+00
     1950 T=  5984. E= 0.13170456E+05 F= 0.63742957E+04 EK= 0.67962E+04 SP= 0.00E+00 SK= 0.00E+00
     1960 T=  6019. E= 0.13170268E+05 F= 0.63338578E+04 EK= 0.68364E+04 SP= 0.00E+00 SK= 0.00E+00
     1970 T=  6023. E= 0.13170298E+05 F= 0.63295837E+04 EK= 0.68407E+04 SP= 0.00E+00 SK= 0.00E+00
     1980 T=  6064. E= 0.13170115E+05 F= 0.62823137E+04 EK= 0.68878E+04 SP= 0.00E+00 SK= 0.00E+00
     1990 T=  6007. E= 0.13170404E+05 F= 0.63472073E+04 EK= 0.68232E+04 SP= 0.00E+00 SK= 0.00E+00
     2000 T=  5963. E= 0.13170556E+05 F= 0.63973991E+04 EK= 0.67732E+04 SP= 0.00E+00 SK= 0.00E+00
     2010 T=  5998. E= 0.13170244E+05 F= 0.63580910E+04 EK= 0.68122E+04 SP= 0.00E+00 SK= 0.00E+00
     2020 T=  5978. E= 0.13170270E+05 F= 0.63798831E+04 EK= 0.67904E+04 SP= 0.00E+00 SK= 0.00E+00
     2030 T=  6013. E= 0.13170039E+05 F= 0.63405164E+04 EK= 0.68295E+04 SP= 0.00E+00 SK= 0.00E+00
     2040 T=  5983. E= 0.13170226E+05 F= 0.63751882E+04 EK= 0.67950E+04 SP= 0.00E+00 SK= 0.00E+00
     2050 T=  5945. E= 0.13170561E+05 F= 0.64184730E+04 EK= 0.67521E+04 SP= 0.00E+00 SK= 0.00E+00
     2060 T=  6028. E= 0.13170403E+05 F= 0.63235808E+04 EK= 0.68468E+04 SP= 0.00E+00 SK= 0.00E+00
     2070 T=  6034. E= 0.13170176E+05 F= 0.63169980E+04 EK= 0.68532E+04 SP= 0.00E+00 SK= 0.00E+00
     2080 T=  5971. E= 0.13170445E+05 F= 0.63885739E+04 EK= 0.67819E+04 SP= 0.00E+00 SK= 0.00E+00
     2090 T=  6034. E= 0.13170097E+05 F= 0.63170174E+04 EK= 0.68531E+04 SP= 0.00E+00 SK= 0.00E+00
     2100 T=  5956. E= 0.13170403E+05 F= 0.64057267E+04 EK= 0.67647E+04 SP= 0.00E+00 SK= 0.00E+00
     2110 T=  5995. E= 0.13170406E+05 F= 0.63611306E+04 EK= 0.68093E+04 SP= 0.00E+00 SK= 0.00E+00
     2120 T=  6048. E= 0.13170508E+05 F= 0.63010188E+04 EK= 0.68695E+04 SP= 0.00E+00 SK= 0.00E+00
     2130 T=  6047. E= 0.13170394E+05 F= 0.63015569E+04 EK= 0.68688E+04 SP= 0.00E+00 SK= 0.00E+00
     2140 T=  6054. E= 0.13170267E+05 F= 0.62934803E+04 EK= 0.68768E+04 SP= 0.00E+00 SK= 0.00E+00
     2150 T=  6017. E= 0.13170286E+05 F= 0.63356049E+04 EK= 0.68347E+04 SP= 0.00E+00 SK= 0.00E+00
     2160 T=  6003. E= 0.13170310E+05 F= 0.63519681E+04 EK= 0.68183E+04 SP= 0.00E+00 SK= 0.00E+00
     2170 T=  5959. E= 0.13170410E+05 F= 0.64025704E+04 EK= 0.67678E+04 SP= 0.00E+00 SK= 0.00E+00
Randomizing velocities, T = 12000.
     2180 T=  6012. E= 0.13179459E+05 F= 0.63505663E+04 EK= 0.68289E+04 SP= 0.00E+00 SK= 0.00E+00
     2190 T=  6081. E= 0.13179494E+05 F= 0.62728105E+04 EK= 0.69067E+04 SP= 0.00E+00 SK= 0.00E+00
     2200 T=  6051. E= 0.13179235E+05 F= 0.63066078E+04 EK= 0.68726E+04 SP= 0.00E+00 SK= 0.00E+00
     2210 T=  6013. E= 0.13179330E+05 F= 0.63499911E+04 EK= 0.68293E+04 SP= 0.00E+00 SK= 0.00E+00
     2220 T=  5934. E= 0.13179469E+05 F= 0.64400566E+04 EK= 0.67394E+04 SP= 0.00E+00 SK= 0.00E+00
     2230 T=  5954. E= 0.13179396E+05 F= 0.64167704E+04 EK= 0.67626E+04 SP= 0.00E+00 SK= 0.00E+00
     2240 T=  5985. E= 0.13179386E+05 F= 0.63814345E+04 EK= 0.67980E+04 SP= 0.00E+00 SK= 0.00E+00
     2250 T=  6003. E= 0.13179626E+05 F= 0.63612507E+04 EK= 0.68184E+04 SP= 0.00E+00 SK= 0.00E+00
     2260 T=  6067. E= 0.13179542E+05 F= 0.62887004E+04 EK= 0.68908E+04 SP= 0.00E+00 SK= 0.00E+00
Randomizing velocities, T = 12000.
     2270 T=  6073. E= 0.13215697E+05 F= 0.63174485E+04 EK= 0.68982E+04 SP= 0.00E+00 SK= 0.00E+00
     2280 T=  6065. E= 0.13215656E+05 F= 0.63266949E+04 EK= 0.68890E+04 SP= 0.00E+00 SK= 0.00E+00
     2290 T=  6010. E= 0.13215730E+05 F= 0.63895639E+04 EK= 0.68262E+04 SP= 0.00E+00 SK= 0.00E+00
     2300 T=  6045. E= 0.13215643E+05 F= 0.63495854E+04 EK= 0.68661E+04 SP= 0.00E+00 SK= 0.00E+00
     2310 T=  6068. E= 0.13215497E+05 F= 0.63237302E+04 EK= 0.68918E+04 SP= 0.00E+00 SK= 0.00E+00
     2320 T=  6050. E= 0.13215849E+05 F= 0.63441529E+04 EK= 0.68717E+04 SP= 0.00E+00 SK= 0.00E+00
     2330 T=  6051. E= 0.13215788E+05 F= 0.63433532E+04 EK= 0.68724E+04 SP= 0.00E+00 SK= 0.00E+00
     2340 T=  5994. E= 0.13215931E+05 F= 0.64074367E+04 EK= 0.68085E+04 SP= 0.00E+00 SK= 0.00E+00
     2350 T=  6054. E= 0.13215555E+05 F= 0.63389128E+04 EK= 0.68766E+04 SP= 0.00E+00 SK= 0.00E+00
     2360 T=  5993. E= 0.13215664E+05 F= 0.64084495E+04 EK= 0.68072E+04 SP= 0.00E+00 SK= 0.00E+00
     2370 T=  6058. E= 0.13215337E+05 F= 0.63343446E+04 EK= 0.68810E+04 SP= 0.00E+00 SK= 0.00E+00
     2380 T=  5949. E= 0.13216105E+05 F= 0.64587585E+04 EK= 0.67573E+04 SP= 0.00E+00 SK= 0.00E+00
     2390 T=  6063. E= 0.13215520E+05 F= 0.63290124E+04 EK= 0.68865E+04 SP= 0.00E+00 SK= 0.00E+00
     2400 T=  6003. E= 0.13215943E+05 F= 0.63977370E+04 EK= 0.68182E+04 SP= 0.00E+00 SK= 0.00E+00
     2410 T=  5999. E= 0.13215537E+05 F= 0.64022949E+04 EK= 0.68132E+04 SP= 0.00E+00 SK= 0.00E+00
     2420 T=  6016. E= 0.13215703E+05 F= 0.63827863E+04 EK= 0.68329E+04 SP= 0.00E+00 SK= 0.00E+00
     2430 T=  6036. E= 0.13215765E+05 F= 0.63603752E+04 EK= 0.68554E+04 SP= 0.00E+00 SK= 0.00E+00
     2440 T=  6070. E= 0.13215585E+05 F= 0.63207751E+04 EK= 0.68948E+04 SP= 0.00E+00 SK= 0.00E+00
     2450 T=  6075. E= 0.13215566E+05 F= 0.63154654E+04 EK= 0.69001E+04 SP= 0.00E+00 SK= 0.00E+00
     2460 T=  5998. E= 0.13215955E+05 F= 0.64030636E+04 EK= 0.68129E+04 SP= 0.00E+00 SK= 0.00E+00
     2470 T=  6001. E= 0.13215805E+05 F= 0.64001799E+04 EK= 0.68156E+04 SP= 0.00E+00 SK= 0.00E+00
     2480 T=  6029. E= 0.13215554E+05 F= 0.63675153E+04 EK= 0.68480E+04 SP= 0.00E+00 SK= 0.00E+00
     2490 T=  5983. E= 0.13215758E+05 F= 0.64207136E+04 EK= 0.67950E+04 SP= 0.00E+00 SK= 0.00E+00
     2500 T=  5999. E= 0.13215706E+05 F= 0.64015043E+04 EK= 0.68142E+04 SP= 0.00E+00 SK= 0.00E+00
     2510 T=  6063. E= 0.13215661E+05 F= 0.63294546E+04 EK= 0.68862E+04 SP= 0.00E+00 SK= 0.00E+00
     2520 T=  6094. E= 0.13215473E+05 F= 0.62943194E+04 EK= 0.69212E+04 SP= 0.00E+00 SK= 0.00E+00
     2530 T=  5958. E= 0.13215868E+05 F= 0.64492165E+04 EK= 0.67667E+04 SP= 0.00E+00 SK= 0.00E+00
     2540 T=  5951. E= 0.13215365E+05 F= 0.64559977E+04 EK= 0.67594E+04 SP= 0.00E+00 SK= 0.00E+00
     2550 T=  6001. E= 0.13215558E+05 F= 0.63999933E+04 EK= 0.68156E+04 SP= 0.00E+00 SK= 0.00E+00
     2560 T=  6029. E= 0.13215804E+05 F= 0.63680037E+04 EK= 0.68478E+04 SP= 0.00E+00 SK= 0.00E+00
     2570 T=  6022. E= 0.13215731E+05 F= 0.63758424E+04 EK= 0.68399E+04 SP= 0.00E+00 SK= 0.00E+00
     2580 T=  6030. E= 0.13215732E+05 F= 0.63672880E+04 EK= 0.68484E+04 SP= 0.00E+00 SK= 0.00E+00
     2590 T=  6046. E= 0.13215591E+05 F= 0.63480179E+04 EK= 0.68676E+04 SP= 0.00E+00 SK= 0.00E+00
     2600 T=  6002. E= 0.13215727E+05 F= 0.63991109E+04 EK= 0.68166E+04 SP= 0.00E+00 SK= 0.00E+00
     2610 T=  6057. E= 0.13215593E+05 F= 0.63359721E+04 EK= 0.68796E+04 SP= 0.00E+00 SK= 0.00E+00
     2620 T=  6021. E= 0.13215819E+05 F= 0.63771853E+04 EK= 0.68386E+04 SP= 0.00E+00 SK= 0.00E+00
     2630 T=  6023. E= 0.13215889E+05 F= 0.63743238E+04 EK= 0.68416E+04 SP= 0.00E+00 SK= 0.00E+00
     2640 T=  6021. E= 0.13215711E+05 F= 0.63771302E+04 EK= 0.68386E+04 SP= 0.00E+00 SK= 0.00E+00
     2650 T=  6063. E= 0.13215614E+05 F= 0.63291067E+04 EK= 0.68865E+04 SP= 0.00E+00 SK= 0.00E+00
     2660 T=  6064. E= 0.13215535E+05 F= 0.63282340E+04 EK= 0.68873E+04 SP= 0.00E+00 SK= 0.00E+00
     2670 T=  6001. E= 0.13215835E+05 F= 0.63997979E+04 EK= 0.68160E+04 SP= 0.00E+00 SK= 0.00E+00
     2680 T=  6036. E= 0.13215855E+05 F= 0.63599631E+04 EK= 0.68559E+04 SP= 0.00E+00 SK= 0.00E+00
     2690 T=  6063. E= 0.13215834E+05 F= 0.63290625E+04 EK= 0.68868E+04 SP= 0.00E+00 SK= 0.00E+00
     2700 T=  6112. E= 0.13215567E+05 F= 0.62735566E+04 EK= 0.69420E+04 SP= 0.00E+00 SK= 0.00E+00
     2710 T=  6097. E= 0.13215708E+05 F= 0.62904893E+04 EK= 0.69252E+04 SP= 0.00E+00 SK= 0.00E+00
     2720 T=  6032. E= 0.13215859E+05 F= 0.63649717E+04 EK= 0.68509E+04 SP= 0.00E+00 SK= 0.00E+00
     2730 T=  6006. E= 0.13216008E+05 F= 0.63946058E+04 EK= 0.68214E+04 SP= 0.00E+00 SK= 0.00E+00
     2740 T=  6034. E= 0.13215393E+05 F= 0.63618347E+04 EK= 0.68536E+04 SP= 0.00E+00 SK= 0.00E+00
     2750 T=  6061. E= 0.13215657E+05 F= 0.63318771E+04 EK= 0.68838E+04 SP= 0.00E+00 SK= 0.00E+00
     2760 T=  6027. E= 0.13215583E+05 F= 0.63700572E+04 EK= 0.68455E+04 SP= 0.00E+00 SK= 0.00E+00
     2770 T=  5923. E= 0.13215782E+05 F= 0.64881026E+04 EK= 0.67277E+04 SP= 0.00E+00 SK= 0.00E+00
     2780 T=  6032. E= 0.13215537E+05 F= 0.63644916E+04 EK= 0.68510E+04 SP= 0.00E+00 SK= 0.00E+00
     2790 T=  6046. E= 0.13215791E+05 F= 0.63483341E+04 EK= 0.68675E+04 SP= 0.00E+00 SK= 0.00E+00
     2800 T=  6067. E= 0.13215646E+05 F= 0.63247548E+04 EK= 0.68909E+04 SP= 0.00E+00 SK= 0.00E+00
     2810 T=  6008. E= 0.13215822E+05 F= 0.63915077E+04 EK= 0.68243E+04 SP= 0.00E+00 SK= 0.00E+00
     2820 T=  5982. E= 0.13215917E+05 F= 0.64217509E+04 EK= 0.67942E+04 SP= 0.00E+00 SK= 0.00E+00
     2830 T=  6039. E= 0.13215571E+05 F= 0.63564260E+04 EK= 0.68591E+04 SP= 0.00E+00 SK= 0.00E+00
     2840 T=  6000. E= 0.13215601E+05 F= 0.64007963E+04 EK= 0.68148E+04 SP= 0.00E+00 SK= 0.00E+00
     2850 T=  6033. E= 0.13215588E+05 F= 0.63633843E+04 EK= 0.68522E+04 SP= 0.00E+00 SK= 0.00E+00
     2860 T=  6044. E= 0.13215759E+05 F= 0.63505951E+04 EK= 0.68652E+04 SP= 0.00E+00 SK= 0.00E+00
Randomizing velocities, T = 12000.
     2870 T=  6030. E= 0.13099313E+05 F= 0.62505557E+04 EK= 0.68488E+04 SP= 0.00E+00 SK= 0.00E+00
     2880 T=  5977. E= 0.13099434E+05 F= 0.63105908E+04 EK= 0.67888E+04 SP= 0.00E+00 SK= 0.00E+00
     2890 T=  5917. E= 0.13099838E+05 F= 0.63791023E+04 EK= 0.67207E+04 SP= 0.00E+00 SK= 0.00E+00
     2900 T=  5995. E= 0.13099485E+05 F= 0.62899916E+04 EK= 0.68095E+04 SP= 0.00E+00 SK= 0.00E+00
     2910 T=  5985. E= 0.13099559E+05 F= 0.63018476E+04 EK= 0.67977E+04 SP= 0.00E+00 SK= 0.00E+00
     2920 T=  5988. E= 0.13099444E+05 F= 0.62977230E+04 EK= 0.68017E+04 SP= 0.00E+00 SK= 0.00E+00
     2930 T=  5912. E= 0.13099817E+05 F= 0.63849903E+04 EK= 0.67148E+04 SP= 0.00E+00 SK= 0.00E+00
     2940 T=  5985. E= 0.13099471E+05 F= 0.63017947E+04 EK= 0.67977E+04 SP= 0.00E+00 SK= 0.00E+00
Randomizing velocities, T = 12000.
     2950 T=  5986. E= 0.13037614E+05 F= 0.62391007E+04 EK= 0.67985E+04 SP= 0.00E+00 SK= 0.00E+00
     2960 T=  5885. E= 0.13037587E+05 F= 0.63537821E+04 EK= 0.66838E+04 SP= 0.00E+00 SK= 0.00E+00
     2970 T=  5895. E= 0.13037781E+05 F= 0.63423115E+04 EK= 0.66955E+04 SP= 0.00E+00 SK= 0.00E+00
     2980 T=  5995. E= 0.13037587E+05 F= 0.62287857E+04 EK= 0.68088E+04 SP= 0.00E+00 SK= 0.00E+00
     2990 T=  5959. E= 0.13037569E+05 F= 0.62689370E+04 EK= 0.67686E+04 SP= 0.00E+00 SK= 0.00E+00
     3000 T=  5915. E= 0.13037734E+05 F= 0.63191932E+04 EK= 0.67185E+04 SP= 0.00E+00 SK= 0.00E+00
     3010 T=  5948. E= 0.13037452E+05 F= 0.62818015E+04 EK= 0.67557E+04 SP= 0.00E+00 SK= 0.00E+00
     3020 T=  5901. E= 0.13037647E+05 F= 0.63351034E+04 EK= 0.67025E+04 SP= 0.00E+00 SK= 0.00E+00
     3030 T=  5881. E= 0.13037809E+05 F= 0.63583853E+04 EK= 0.66794E+04 SP= 0.00E+00 SK= 0.00E+00
     3040 T=  5909. E= 0.13037539E+05 F= 0.63263827E+04 EK= 0.67112E+04 SP= 0.00E+00 SK= 0.00E+00
     3050 T=  5925. E= 0.13037717E+05 F= 0.63078194E+04 EK= 0.67299E+04 SP= 0.00E+00 SK= 0.00E+00
     3060 T=  5981. E= 0.13037526E+05 F= 0.62438391E+04 EK= 0.67937E+04 SP= 0.00E+00 SK= 0.00E+00
     3070 T=  5947. E= 0.13037658E+05 F= 0.62827449E+04 EK= 0.67549E+04 SP= 0.00E+00 SK= 0.00E+00
     3080 T=  5893. E= 0.13037874E+05 F= 0.63447260E+04 EK= 0.66931E+04 SP= 0.00E+00 SK= 0.00E+00
     3090 T=  5917. E= 0.13037576E+05 F= 0.63175109E+04 EK= 0.67201E+04 SP= 0.00E+00 SK= 0.00E+00
     3100 T=  5930. E= 0.13037452E+05 F= 0.63020911E+04 EK= 0.67354E+04 SP= 0.00E+00 SK= 0.00E+00
     3110 T=  5910. E= 0.13037693E+05 F= 0.63248636E+04 EK= 0.67128E+04 SP= 0.00E+00 SK= 0.00E+00
     3120 T=  5941. E= 0.13037387E+05 F= 0.62895936E+04 EK= 0.67478E+04 SP= 0.00E+00 SK= 0.00E+00
     3130 T=  5856. E= 0.13037740E+05 F= 0.63863304E+04 EK= 0.66514E+04 SP= 0.00E+00 SK= 0.00E+00
     3140 T=  5946. E= 0.13037493E+05 F= 0.62833987E+04 EK= 0.67541E+04 SP= 0.00E+00 SK= 0.00E+00
     3150 T=  5925. E= 0.13037738E+05 F= 0.63080956E+04 EK= 0.67296E+04 SP= 0.00E+00 SK= 0.00E+00
     3160 T=  5920. E= 0.13037457E+05 F= 0.63139603E+04 EK= 0.67235E+04 SP= 0.00E+00 SK= 0.00E+00
     3170 T=  5913. E= 0.13037518E+05 F= 0.63216878E+04 EK= 0.67158E+04 SP= 0.00E+00 SK= 0.00E+00
     3180 T=  5883. E= 0.13037501E+05 F= 0.63560561E+04 EK= 0.66814E+04 SP= 0.00E+00 SK= 0.00E+00
Randomizing velocities, T = 12000.
     3190 T=  6044. E= 0.13154655E+05 F= 0.62896839E+04 EK= 0.68650E+04 SP= 0.00E+00 SK= 0.00E+00
     3200 T=  6025. E= 0.13154610E+05 F= 0.63111706E+04 EK= 0.68434E+04 SP= 0.00E+00 SK= 0.00E+00
     3210 T=  5976. E= 0.13154587E+05 F= 0.63668287E+04 EK= 0.67878E+04 SP= 0.00E+00 SK= 0.00E+00
     3220 T=  6016. E= 0.13154367E+05 F= 0.63212295E+04 EK= 0.68331E+04 SP= 0.00E+00 SK= 0.00E+00
     3230 T=  5995. E= 0.13154678E+05 F= 0.63455160E+04 EK= 0.68092E+04 SP= 0.00E+00 SK= 0.00E+00
     3240 T=  6008. E= 0.13154484E+05 F= 0.63307959E+04 EK= 0.68237E+04 SP= 0.00E+00 SK= 0.00E+00
     3250 T=  5993. E= 0.13154251E+05 F= 0.63474047E+04 EK= 0.68068E+04 SP= 0.00E+00 SK= 0.00E+00
     3260 T=  5975. E= 0.13154528E+05 F= 0.63681361E+04 EK= 0.67864E+04 SP= 0.00E+00 SK= 0.00E+00
     3270 T=  5995. E= 0.13154394E+05 F= 0.63451271E+04 EK= 0.68093E+04 SP= 0.00E+00 SK= 0.00E+00
     3280 T=  5998. E= 0.13154436E+05 F= 0.63417942E+04 EK= 0.68126E+04 SP= 0.00E+00 SK= 0.00E+00
     3290 T=  6053. E= 0.13154323E+05 F= 0.62794939E+04 EK= 0.68748E+04 SP= 0.00E+00 SK= 0.00E+00
     3300 T=  6009. E= 0.13154408E+05 F= 0.63293543E+04 EK= 0.68251E+04 SP= 0.00E+00 SK= 0.00E+00
     3310 T=  5989. E= 0.13154569E+05 F= 0.63524084E+04 EK= 0.68022E+04 SP= 0.00E+00 SK= 0.00E+00
     3320 T=  6024. E= 0.13154268E+05 F= 0.63116683E+04 EK= 0.68426E+04 SP= 0.00E+00 SK= 0.00E+00
     3330 T=  5962. E= 0.13154474E+05 F= 0.63832903E+04 EK= 0.67712E+04 SP= 0.00E+00 SK= 0.00E+00
     3340 T=  6023. E= 0.13154372E+05 F= 0.63134876E+04 EK= 0.68409E+04 SP= 0.00E+00 SK= 0.00E+00
Randomizing velocities, T = 12000.
     3350 T=  6069. E= 0.13142255E+05 F= 0.62494456E+04 EK= 0.68928E+04 SP= 0.00E+00 SK= 0.00E+00
     3360 T=  5997. E= 0.13142580E+05 F= 0.63312175E+04 EK= 0.68114E+04 SP= 0.00E+00 SK= 0.00E+00
     3370 T=  5998. E= 0.13142640E+05 F= 0.63295976E+04 EK= 0.68130E+04 SP= 0.00E+00 SK= 0.00E+00
     3380 T=  6057. E= 0.13142432E+05 F= 0.62628390E+04 EK= 0.68796E+04 SP= 0.00E+00 SK= 0.00E+00
     3390 T=  6080. E= 0.13142297E+05 F= 0.62368322E+04 EK= 0.69055E+04 SP= 0.00E+00 SK= 0.00E+00
     3400 T=  6040. E= 0.13142519E+05 F= 0.62826665E+04 EK= 0.68599E+04 SP= 0.00E+00 SK= 0.00E+00
     3410 T=  5978. E= 0.13142411E+05 F= 0.63522444E+04 EK= 0.67902E+04 SP= 0.00E+00 SK= 0.00E+00
     3420 T=  5947. E= 0.13142474E+05 F= 0.63872220E+04 EK= 0.67553E+04 SP= 0.00E+00 SK= 0.00E+00
     3430 T=  5984. E= 0.13142448E+05 F= 0.63454480E+04 EK= 0.67970E+04 SP= 0.00E+00 SK= 0.00E+00
     3440 T=  6025. E= 0.13142741E+05 F= 0.62999796E+04 EK= 0.68428E+04 SP= 0.00E+00 SK= 0.00E+00
     3450 T=  6004. E= 0.13142491E+05 F= 0.63228254E+04 EK= 0.68197E+04 SP= 0.00E+00 SK= 0.00E+00
     3460 T=  6011. E= 0.13142250E+05 F= 0.63151535E+04 EK= 0.68271E+04 SP= 0.00E+00 SK= 0.00E+00
     3470 T=  6003. E= 0.13142348E+05 F= 0.63242319E+04 EK= 0.68181E+04 SP= 0.00E+00 SK= 0.00E+00
     3480 T=  6034. E= 0.13142633E+05 F= 0.62892328E+04 EK= 0.68534E+04 SP= 0.00E+00 SK= 0.00E+00
     3490 T=  6006. E= 0.13142543E+05 F= 0.63210919E+04 EK= 0.68215E+04 SP= 0.00E+00 SK= 0.00E+00
     3500 T=  5984. E= 0.13142185E+05 F= 0.63457238E+04 EK= 0.67965E+04 SP= 0.00E+00 SK= 0.00E+00
     3510 T=  5922. E= 0.13142583E+05 F= 0.64167245E+04 EK= 0.67259E+04 SP= 0.00E+00 SK= 0.00E+00
     3520 T=  5978. E= 0.13142348E+05 F= 0.63523872E+04 EK= 0.67900E+04 SP= 0.00E+00 SK= 0.00E+00
     3530 T=  5956. E= 0.13142435E+05 F= 0.63772423E+04 EK= 0.67652E+04 SP= 0.00E+00 SK= 0.00E+00
     3540 T=  5986. E= 0.13142249E+05 F= 0.63434231E+04 EK= 0.67988E+04 SP= 0.00E+00 SK= 0.00E+00
     3550 T=  5912. E= 0.13142561E+05 F= 0.64271865E+04 EK= 0.67154E+04 SP= 0.00E+00 SK= 0.00E+00
     3560 T=  6020. E= 0.13142604E+05 F= 0.63055023E+04 EK= 0.68371E+04 SP= 0.00E+00 SK= 0.00E+00
     3570 T=  6048. E= 0.13142571E+05 F= 0.62728841E+04 EK= 0.68697E+04 SP= 0.00E+00 SK= 0.00E+00
     3580 T=  6006. E= 0.13142679E+05 F= 0.63207799E+04 EK= 0.68219E+04 SP= 0.00E+00 SK= 0.00E+00
     3590 T=  6026. E= 0.13142520E+05 F= 0.62983147E+04 EK= 0.68442E+04 SP= 0.00E+00 SK= 0.00E+00
     3600 T=  6020. E= 0.13142268E+05 F= 0.63051607E+04 EK= 0.68371E+04 SP= 0.00E+00 SK= 0.00E+00
     3610 T=  5942. E= 0.13142485E+05 F= 0.63933426E+04 EK= 0.67491E+04 SP= 0.00E+00 SK= 0.00E+00
     3620 T=  6063. E= 0.13142244E+05 F= 0.62554259E+04 EK= 0.68868E+04 SP= 0.00E+00 SK= 0.00E+00
     3630 T=  6030. E= 0.13142352E+05 F= 0.62933550E+04 EK= 0.68490E+04 SP= 0.00E+00 SK= 0.00E+00
     3640 T=  6042. E= 0.13142325E+05 F= 0.62802347E+04 EK= 0.68621E+04 SP= 0.00E+00 SK= 0.00E+00
     3650 T=  6064. E= 0.13142419E+05 F= 0.62543271E+04 EK= 0.68881E+04 SP= 0.00E+00 SK= 0.00E+00
     3660 T=  6038. E= 0.13142494E+05 F= 0.62847938E+04 EK= 0.68577E+04 SP= 0.00E+00 SK= 0.00E+00
     3670 T=  5990. E= 0.13142648E+05 F= 0.63389667E+04 EK= 0.68037E+04 SP= 0.00E+00 SK= 0.00E+00
     3680 T=  6000. E= 0.13142625E+05 F= 0.63272782E+04 EK= 0.68153E+04 SP= 0.00E+00 SK= 0.00E+00
Randomizing velocities, T = 12000.
     3690 T=  5964. E= 0.13041393E+05 F= 0.62673419E+04 EK= 0.67741E+04 SP= 0.00E+00 SK= 0.00E+00
     3700 T=  5903. E= 0.13041571E+05 F= 0.63371710E+04 EK= 0.67044E+04 SP= 0.00E+00 SK= 0.00E+00
     3710 T=  5934. E= 0.13041214E+05 F= 0.63012207E+04 EK= 0.67400E+04 SP= 0.00E+00 SK= 0.00E+00
     3720 T=  5910. E= 0.13041328E+05 F= 0.63283250E+04 EK= 0.67130E+04 SP= 0.00E+00 SK= 0.00E+00
     3730 T=  5964. E= 0.13041071E+05 F= 0.62665960E+04 EK= 0.67745E+04 SP= 0.00E+00 SK= 0.00E+00
     3740 T=  5920. E= 0.13041671E+05 F= 0.63177440E+04 EK= 0.67239E+04 SP= 0.00E+00 SK= 0.00E+00
     3750 T=  5974. E= 0.13041250E+05 F= 0.62557651E+04 EK= 0.67855E+04 SP= 0.00E+00 SK= 0.00E+00
     3760 T=  5910. E= 0.13041242E+05 F= 0.63282888E+04 EK= 0.67130E+04 SP= 0.00E+00 SK= 0.00E+00
     3770 T=  5870. E= 0.13041410E+05 F= 0.63738969E+04 EK= 0.66675E+04 SP= 0.00E+00 SK= 0.00E+00
     3780 T=  5927. E= 0.13041281E+05 F= 0.63089622E+04 EK= 0.67323E+04 SP= 0.00E+00 SK= 0.00E+00
     3790 T=  5915. E= 0.13041345E+05 F= 0.63229775E+04 EK= 0.67184E+04 SP= 0.00E+00 SK= 0.00E+00
     3800 T=  5852. E= 0.13041503E+05 F= 0.63948237E+04 EK= 0.66467E+04 SP= 0.00E+00 SK= 0.00E+00
     3810 T=  5878. E= 0.13041390E+05 F= 0.63654711E+04 EK= 0.66759E+04 SP= 0.00E+00 SK= 0.00E+00
     3820 T=  5897. E= 0.13041434E+05 F= 0.63438422E+04 EK= 0.66976E+04 SP= 0.00E+00 SK= 0.00E+00
     3830 T=  5902. E= 0.13041349E+05 F= 0.63375890E+04 EK= 0.67038E+04 SP= 0.00E+00 SK= 0.00E+00
     3840 T=  5899. E= 0.13041255E+05 F= 0.63415333E+04 EK= 0.66997E+04 SP= 0.00E+00 SK= 0.00E+00
     3850 T=  5916. E= 0.13041390E+05 F= 0.63214220E+04 EK= 0.67200E+04 SP= 0.00E+00 SK= 0.00E+00
     3860 T=  5954. E= 0.13041297E+05 F= 0.62785924E+04 EK= 0.67627E+04 SP= 0.00E+00 SK= 0.00E+00
     3870 T=  5919. E= 0.13041505E+05 F= 0.63188597E+04 EK= 0.67226E+04 SP= 0.00E+00 SK= 0.00E+00
     3880 T=  5866. E= 0.13041459E+05 F= 0.63792319E+04 EK= 0.66622E+04 SP= 0.00E+00 SK= 0.00E+00
     3890 T=  5944. E= 0.13041174E+05 F= 0.62895515E+04 EK= 0.67516E+04 SP= 0.00E+00 SK= 0.00E+00
     3900 T=  5866. E= 0.13041398E+05 F= 0.63790957E+04 EK= 0.66623E+04 SP= 0.00E+00 SK= 0.00E+00
     3910 T=  5855. E= 0.13041235E+05 F= 0.63916043E+04 EK= 0.66496E+04 SP= 0.00E+00 SK= 0.00E+00
     3920 T=  5899. E= 0.13041553E+05 F= 0.63416944E+04 EK= 0.66999E+04 SP= 0.00E+00 SK= 0.00E+00
     3930 T=  5922. E= 0.13041473E+05 F= 0.63153342E+04 EK= 0.67261E+04 SP= 0.00E+00 SK= 0.00E+00
     3940 T=  5896. E= 0.13041408E+05 F= 0.63449671E+04 EK= 0.66964E+04 SP= 0.00E+00 SK= 0.00E+00
     3950 T=  5892. E= 0.13041341E+05 F= 0.63486624E+04 EK= 0.66927E+04 SP= 0.00E+00 SK= 0.00E+00
     3960 T=  5904. E= 0.13041357E+05 F= 0.63350110E+04 EK= 0.67063E+04 SP= 0.00E+00 SK= 0.00E+00
     3970 T=  5950. E= 0.13041313E+05 F= 0.62828453E+04 EK= 0.67585E+04 SP= 0.00E+00 SK= 0.00E+00
     3980 T=  5974. E= 0.13041261E+05 F= 0.62562978E+04 EK= 0.67850E+04 SP= 0.00E+00 SK= 0.00E+00
     3990 T=  5911. E= 0.13041439E+05 F= 0.63280714E+04 EK= 0.67134E+04 SP= 0.00E+00 SK= 0.00E+00
     4000 T=  5896. E= 0.13041559E+05 F= 0.63443868E+04 EK= 0.66972E+04 SP= 0.00E+00 SK= 0.00E+00
     4010 T=  5954. E= 0.13041417E+05 F= 0.62782129E+04 EK= 0.67632E+04 SP= 0.00E+00 SK= 0.00E+00
     4020 T=  5983. E= 0.13041458E+05 F= 0.62460134E+04 EK= 0.67954E+04 SP= 0.00E+00 SK= 0.00E+00
     4030 T=  5910. E= 0.13041504E+05 F= 0.63287529E+04 EK= 0.67128E+04 SP= 0.00E+00 SK= 0.00E+00
     4040 T=  5955. E= 0.13041223E+05 F= 0.62779091E+04 EK= 0.67633E+04 SP= 0.00E+00 SK= 0.00E+00
     4050 T=  5997. E= 0.13041325E+05 F= 0.62303009E+04 EK= 0.68110E+04 SP= 0.00E+00 SK= 0.00E+00
     4060 T=  5938. E= 0.13041227E+05 F= 0.62964383E+04 EK= 0.67448E+04 SP= 0.00E+00 SK= 0.00E+00
     4070 T=  5838. E= 0.13041282E+05 F= 0.64102948E+04 EK= 0.66310E+04 SP= 0.00E+00 SK= 0.00E+00
     4080 T=  5834. E= 0.13041439E+05 F= 0.64151575E+04 EK= 0.66263E+04 SP= 0.00E+00 SK= 0.00E+00
     4090 T=  5940. E= 0.13041322E+05 F= 0.62943649E+04 EK= 0.67470E+04 SP= 0.00E+00 SK= 0.00E+00
     4100 T=  5994. E= 0.13041485E+05 F= 0.62333480E+04 EK= 0.68081E+04 SP= 0.00E+00 SK= 0.00E+00
     4110 T=  5967. E= 0.13041290E+05 F= 0.62642302E+04 EK= 0.67771E+04 SP= 0.00E+00 SK= 0.00E+00
     4120 T=  5897. E= 0.13041379E+05 F= 0.63434384E+04 EK= 0.66979E+04 SP= 0.00E+00 SK= 0.00E+00
     4130 T=  5919. E= 0.13041151E+05 F= 0.63185363E+04 EK= 0.67226E+04 SP= 0.00E+00 SK= 0.00E+00
     4140 T=  5924. E= 0.13041342E+05 F= 0.63129665E+04 EK= 0.67284E+04 SP= 0.00E+00 SK= 0.00E+00
     4150 T=  5921. E= 0.13041205E+05 F= 0.63160712E+04 EK= 0.67251E+04 SP= 0.00E+00 SK= 0.00E+00
     4160 T=  5894. E= 0.13041431E+05 F= 0.63467808E+04 EK= 0.66947E+04 SP= 0.00E+00 SK= 0.00E+00
     4170 T=  5929. E= 0.13041391E+05 F= 0.63068099E+04 EK= 0.67346E+04 SP= 0.00E+00 SK= 0.00E+00
     4180 T=  5934. E= 0.13041293E+05 F= 0.63009638E+04 EK= 0.67403E+04 SP= 0.00E+00 SK= 0.00E+00
     4190 T=  5911. E= 0.13041399E+05 F= 0.63272272E+04 EK= 0.67142E+04 SP= 0.00E+00 SK= 0.00E+00
     4200 T=  5944. E= 0.13041413E+05 F= 0.62897632E+04 EK= 0.67516E+04 SP= 0.00E+00 SK= 0.00E+00
     4210 T=  5914. E= 0.13041564E+05 F= 0.63241032E+04 EK= 0.67175E+04 SP= 0.00E+00 SK= 0.00E+00
     4220 T=  5941. E= 0.13041497E+05 F= 0.62940465E+04 EK= 0.67475E+04 SP= 0.00E+00 SK= 0.00E+00
     4230 T=  5926. E= 0.13041392E+05 F= 0.63107386E+04 EK= 0.67307E+04 SP= 0.00E+00 SK= 0.00E+00
     4240 T=  5851. E= 0.13041491E+05 F= 0.63958649E+04 EK= 0.66456E+04 SP= 0.00E+00 SK= 0.00E+00
     4250 T=  5867. E= 0.13041274E+05 F= 0.63776288E+04 EK= 0.66636E+04 SP= 0.00E+00 SK= 0.00E+00
     4260 T=  5882. E= 0.13041241E+05 F= 0.63600329E+04 EK= 0.66812E+04 SP= 0.00E+00 SK= 0.00E+00
     4270 T=  5913. E= 0.13041340E+05 F= 0.63256045E+04 EK= 0.67157E+04 SP= 0.00E+00 SK= 0.00E+00
     4280 T=  5902. E= 0.13041392E+05 F= 0.63382727E+04 EK= 0.67031E+04 SP= 0.00E+00 SK= 0.00E+00
     4290 T=  5908. E= 0.13041425E+05 F= 0.63312447E+04 EK= 0.67102E+04 SP= 0.00E+00 SK= 0.00E+00
     4300 T=  5948. E= 0.13041293E+05 F= 0.62853891E+04 EK= 0.67559E+04 SP= 0.00E+00 SK= 0.00E+00
     4310 T=  5948. E= 0.13041486E+05 F= 0.62853793E+04 EK= 0.67561E+04 SP= 0.00E+00 SK= 0.00E+00
     4320 T=  5984. E= 0.13041218E+05 F= 0.62450711E+04 EK= 0.67961E+04 SP= 0.00E+00 SK= 0.00E+00
     4330 T=  5925. E= 0.13041396E+05 F= 0.63117177E+04 EK= 0.67297E+04 SP= 0.00E+00 SK= 0.00E+00
     4340 T=  5896. E= 0.13041505E+05 F= 0.63453047E+04 EK= 0.66962E+04 SP= 0.00E+00 SK= 0.00E+00
     4350 T=  5947. E= 0.13041392E+05 F= 0.62864689E+04 EK= 0.67549E+04 SP= 0.00E+00 SK= 0.00E+00
     4360 T=  5960. E= 0.13041392E+05 F= 0.62716196E+04 EK= 0.67698E+04 SP= 0.00E+00 SK= 0.00E+00
     4370 T=  5903. E= 0.13041499E+05 F= 0.63371344E+04 EK= 0.67044E+04 SP= 0.00E+00 SK= 0.00E+00
Randomizing velocities, T = 12000.
     4380 T=  6090. E= 0.13184352E+05 F= 0.62675265E+04 EK= 0.69168E+04 SP= 0.00E+00 SK= 0.00E+00
     4390 T=  6047. E= 0.13184248E+05 F= 0.63158161E+04 EK= 0.68684E+04 SP= 0.00E+00 SK= 0.00E+00
     4400 T=  6018. E= 0.13183830E+05 F= 0.63486454E+04 EK= 0.68352E+04 SP= 0.00E+00 SK= 0.00E+00
     4410 T=  5989. E= 0.13184036E+05 F= 0.63812354E+04 EK= 0.68028E+04 SP= 0.00E+00 SK= 0.00E+00
     4420 T=  6009. E= 0.13184169E+05 F= 0.63585270E+04 EK= 0.68256E+04 SP= 0.00E+00 SK= 0.00E+00
     4430 T=  6041. E= 0.13184474E+05 F= 0.63230929E+04 EK= 0.68614E+04 SP= 0.00E+00 SK= 0.00E+00
     4440 T=  6041. E= 0.13184129E+05 F= 0.63222517E+04 EK= 0.68619E+04 SP= 0.00E+00 SK= 0.00E+00
     4450 T=  6029. E= 0.13184108E+05 F= 0.63361735E+04 EK= 0.68479E+04 SP= 0.00E+00 SK= 0.00E+00
     4460 T=  6040. E= 0.13184103E+05 F= 0.63234357E+04 EK= 0.68607E+04 SP= 0.00E+00 SK= 0.00E+00
     4470 T=  6052. E= 0.13184004E+05 F= 0.63096604E+04 EK= 0.68743E+04 SP= 0.00E+00 SK= 0.00E+00
     4480 T=  6083. E= 0.13184186E+05 F= 0.62746697E+04 EK= 0.69095E+04 SP= 0.00E+00 SK= 0.00E+00
     4490 T=  6002. E= 0.13184244E+05 F= 0.63674623E+04 EK= 0.68168E+04 SP= 0.00E+00 SK= 0.00E+00
     4500 T=  6034. E= 0.13183872E+05 F= 0.63300764E+04 EK= 0.68538E+04 SP= 0.00E+00 SK= 0.00E+00
     4510 T=  6050. E= 0.13183836E+05 F= 0.63116497E+04 EK= 0.68722E+04 SP= 0.00E+00 SK= 0.00E+00
     4520 T=  5968. E= 0.13184134E+05 F= 0.64055047E+04 EK= 0.67786E+04 SP= 0.00E+00 SK= 0.00E+00
     4530 T=  6008. E= 0.13184238E+05 F= 0.63601215E+04 EK= 0.68241E+04 SP= 0.00E+00 SK= 0.00E+00
     4540 T=  6035. E= 0.13184128E+05 F= 0.63295423E+04 EK= 0.68546E+04 SP= 0.00E+00 SK= 0.00E+00
     4550 T=  5987. E= 0.13184222E+05 F= 0.63843198E+04 EK= 0.67999E+04 SP= 0.00E+00 SK= 0.00E+00
     4560 T=  6031. E= 0.13184044E+05 F= 0.63344366E+04 EK= 0.68496E+04 SP= 0.00E+00 SK= 0.00E+00
     4570 T=  6002. E= 0.13184268E+05 F= 0.63673750E+04 EK= 0.68169E+04 SP= 0.00E+00 SK= 0.00E+00
     4580 T=  6019. E= 0.13184200E+05 F= 0.63473834E+04 EK= 0.68368E+04 SP= 0.00E+00 SK= 0.00E+00
     4590 T=  6023. E= 0.13184106E+05 F= 0.63430172E+04 EK= 0.68411E+04 SP= 0.00E+00 SK= 0.00E+00
     4600 T=  6010. E= 0.13184089E+05 F= 0.63583635E+04 EK= 0.68257E+04 SP= 0.00E+00 SK= 0.00E+00
     4610 T=  5989. E= 0.13184270E+05 F= 0.63813849E+04 EK= 0.68029E+04 SP= 0.00E+00 SK= 0.00E+00
     4620 T=  6013. E= 0.13183999E+05 F= 0.63540046E+04 EK= 0.68300E+04 SP= 0.00E+00 SK= 0.00E+00
     4630 T=  5998. E= 0.13184342E+05 F= 0.63717562E+04 EK= 0.68126E+04 SP= 0.00E+00 SK= 0.00E+00
     4640 T=  6005. E= 0.13184253E+05 F= 0.63634919E+04 EK= 0.68208E+04 SP= 0.00E+00 SK= 0.00E+00
     4650 T=  6019. E= 0.13184240E+05 F= 0.63476932E+04 EK= 0.68365E+04 SP= 0.00E+00 SK= 0.00E+00
     4660 T=  6023. E= 0.13184169E+05 F= 0.63430597E+04 EK= 0.68411E+04 SP= 0.00E+00 SK= 0.00E+00
     4670 T=  6025. E= 0.13184269E+05 F= 0.63406377E+04 EK= 0.68436E+04 SP= 0.00E+00 SK= 0.00E+00
     4680 T=  6069. E= 0.13184133E+05 F= 0.62909296E+04 EK= 0.68932E+04 SP= 0.00E+00 SK= 0.00E+00
     4690 T=  6003. E= 0.13183976E+05 F= 0.63654952E+04 EK= 0.68185E+04 SP= 0.00E+00 SK= 0.00E+00
     4700 T=  6020. E= 0.13184060E+05 F= 0.63459455E+04 EK= 0.68381E+04 SP= 0.00E+00 SK= 0.00E+00
     4710 T=  6015. E= 0.13184264E+05 F= 0.63523960E+04 EK= 0.68319E+04 SP= 0.00E+00 SK= 0.00E+00
     4720 T=  6027. E= 0.13184256E+05 F= 0.63383863E+04 EK= 0.68459E+04 SP= 0.00E+00 SK= 0.00E+00
Randomizing velocities, T = 12000.
     4730 T=  5945. E= 0.13046988E+05 F= 0.62944487E+04 EK= 0.67525E+04 SP= 0.00E+00 SK= 0.00E+00
     4740 T=  5966. E= 0.13047323E+05 F= 0.62713004E+04 EK= 0.67760E+04 SP= 0.00E+00 SK= 0.00E+00
     4750 T=  5966. E= 0.13047361E+05 F= 0.62712720E+04 EK= 0.67761E+04 SP= 0.00E+00 SK= 0.00E+00
     4760 T=  5993. E= 0.13047352E+05 F= 0.62405971E+04 EK= 0.68068E+04 SP= 0.00E+00 SK= 0.00E+00
     4770 T=  5918. E= 0.13047543E+05 F= 0.63260258E+04 EK= 0.67215E+04 SP= 0.00E+00 SK= 0.00E+00
     4780 T=  5919. E= 0.13047339E+05 F= 0.63242489E+04 EK= 0.67231E+04 SP= 0.00E+00 SK= 0.00E+00
     4790 T=  5950. E= 0.13047165E+05 F= 0.62895720E+04 EK= 0.67576E+04 SP= 0.00E+00 SK= 0.00E+00
     4800 T=  5879. E= 0.13047217E+05 F= 0.63694175E+04 EK= 0.66778E+04 SP= 0.00E+00 SK= 0.00E+00
     4810 T=  5941. E= 0.13047199E+05 F= 0.62990699E+04 EK= 0.67481E+04 SP= 0.00E+00 SK= 0.00E+00
     4820 T=  6028. E= 0.13047020E+05 F= 0.62005037E+04 EK= 0.68465E+04 SP= 0.00E+00 SK= 0.00E+00
     4830 T=  5963. E= 0.13047143E+05 F= 0.62737956E+04 EK= 0.67733E+04 SP= 0.00E+00 SK= 0.00E+00
     4840 T=  5900. E= 0.13047314E+05 F= 0.63463828E+04 EK= 0.67009E+04 SP= 0.00E+00 SK= 0.00E+00
     4850 T=  5880. E= 0.13047435E+05 F= 0.63691189E+04 EK= 0.66783E+04 SP= 0.00E+00 SK= 0.00E+00
     4860 T=  5948. E= 0.13047172E+05 F= 0.62915178E+04 EK= 0.67557E+04 SP= 0.00E+00 SK= 0.00E+00
     4870 T=  5901. E= 0.13047372E+05 F= 0.63445806E+04 EK= 0.67028E+04 SP= 0.00E+00 SK= 0.00E+00
     4880 T=  5904. E= 0.13047277E+05 F= 0.63418591E+04 EK= 0.67054E+04 SP= 0.00E+00 SK= 0.00E+00
     4890 T=  5919. E= 0.13047269E+05 F= 0.63246628E+04 EK= 0.67226E+04 SP= 0.00E+00 SK= 0.00E+00
     4900 T=  5981. E= 0.13047263E+05 F= 0.62533939E+04 EK= 0.67939E+04 SP= 0.00E+00 SK= 0.00E+00
     4910 T=  5954. E= 0.13047220E+05 F= 0.62841929E+04 EK= 0.67630E+04 SP= 0.00E+00 SK= 0.00E+00
     4920 T=  5943. E= 0.13047303E+05 F= 0.62972735E+04 EK= 0.67500E+04 SP= 0.00E+00 SK= 0.00E+00
     4930 T=  5951. E= 0.13047166E+05 F= 0.62874003E+04 EK= 0.67598E+04 SP= 0.00E+00 SK= 0.00E+00
     4940 T=  5929. E= 0.13047062E+05 F= 0.63132395E+04 EK= 0.67338E+04 SP= 0.00E+00 SK= 0.00E+00
     4950 T=  5887. E= 0.13047234E+05 F= 0.63606507E+04 EK= 0.66866E+04 SP= 0.00E+00 SK= 0.00E+00
     4960 T=  5898. E= 0.13047208E+05 F= 0.63487229E+04 EK= 0.66985E+04 SP= 0.00E+00 SK= 0.00E+00
     4970 T=  5904. E= 0.13047149E+05 F= 0.63412317E+04 EK= 0.67059E+04 SP= 0.00E+00 SK= 0.00E+00
     4980 T=  5944. E= 0.13047014E+05 F= 0.62956069E+04 EK= 0.67514E+04 SP= 0.00E+00 SK= 0.00E+00
     4990 T=  5929. E= 0.13047124E+05 F= 0.63125512E+04 EK= 0.67346E+04 SP= 0.00E+00 SK= 0.00E+00
Rc and Rl:   5.500000  7.500000
Rc and Rl:   5.500000  7.500000

Average number of steps between two list updates:  12.25
Average number of atoms in the shell:     0.01

Average number of steps between two list updates:  12.25
Average number of atoms in the shell:     0.01
Rc and Rl:   5.500000  7.500000
Rc and Rl:   5.500000  7.500000

Average number of steps between two list updates:  12.25
Average number of atoms in the shell:     0.01

Average number of steps between two list updates:  12.25
Average number of atoms in the shell:     0.01
Rc and Rl:   5.500000  7.500000
Rc and Rl:   5.500000  7.500000

Average number of steps between two list updates:  12.25
Average number of atoms in the shell:     0.01

Average number of steps between two list updates:  12.25
Average number of atoms in the shell:     0.01
Rc and Rl:   5.500000  7.500000
Rc and Rl:   5.500000  7.500000

Average number of steps between two list updates:  12.25
Average number of atoms in the shell:     0.01

Average number of steps between two list updates:  12.25
Average number of atoms in the shell:     0.01
Rc and Rl:   5.500000  7.500000
Rc and Rl:   5.500000  7.500000

Average number of steps between two list updates:  12.25
Average number of atoms in the shell:     0.01

Average number of steps between two list updates:  12.25
Average number of atoms in the shell:     0.01
Rc and Rl:   5.500000  7.500000
Rc and Rl:   5.500000  7.500000

Rc and Rl:   5.500000  7.500000
Rc and Rl:   5.500000  7.500000

Rc and Rl:   5.500000  7.500000
Rc and Rl:   5.500000  7.500000

Average number of steps between two list updates:  12.25
Average number of atoms in the shell:     0.01

Average number of steps between two list updates:  12.25
Average number of atoms in the shell:     0.01
Rc and Rl:   5.500000  7.500000
Rc and Rl:   5.500000  7.500000

Average number of steps between two list updates:  12.25
Average number of atoms in the shell:     0.01

Average number of steps between two list updates:  12.25
Average number of atoms in the shell:     0.01
Average number of steps between two list updates:  12.25
Average number of atoms in the shell:     0.01

Average number of steps between two list updates:  12.25
Average number of atoms in the shell:     0.01
Rc and Rl:   5.500000  7.500000
Rc and Rl:   5.500000  7.500000

Average number of steps between two list updates:  12.25
Average number of atoms in the shell:     0.01

Average number of steps between two list updates:  12.25
Average number of atoms in the shell:     0.01
Rc and Rl:   5.500000  7.500000
Rc and Rl:   5.500000  7.500000

Average number of steps between two list updates:  12.25
Average number of atoms in the shell:     0.01

Average number of steps between two list updates:  12.25
Average number of atoms in the shell:     0.01
Rc and Rl:   5.500000  7.500000
Rc and Rl:   5.500000  7.500000

Average number of steps between two list updates:  12.25
Average number of atoms in the shell:     0.01

Average number of steps between two list updates:  12.25
Average number of atoms in the shell:     0.01
Rc and Rl:   5.500000  7.500000
Rc and Rl:   5.500000  7.500000

Average number of steps between two list updates:  12.25
Average number of atoms in the shell:     0.01

Average number of steps between two list updates:  12.25
Average number of atoms in the shell:     0.01
Average number of steps between two list updates:  12.25
Average number of atoms in the shell:     0.01

Average number of steps between two list updates:  12.25
Average number of atoms in the shell:     0.01
Rc and Rl:   5.500000  7.500000
Rc and Rl:   5.500000  7.500000

Rc and Rl:   5.500000  7.500000
Rc and Rl:   5.500000  7.500000

Average number of steps between two list updates:  12.25
Average number of atoms in the shell:     0.01

Average number of steps between two list updates:  12.25
Average number of atoms in the shell:     0.01
Rc and Rl:   5.500000  7.500000
Rc and Rl:   5.500000  7.500000

Rc and Rl:   5.500000  7.500000
Rc and Rl:   5.500000  7.500000

Rc and Rl:   5.500000  7.500000
Rc and Rl:   5.500000  7.500000

Rc and Rl:   5.500000  7.500000
Rc and Rl:   5.500000  7.500000

Rc and Rl:   5.500000  7.500000
Rc and Rl:   5.500000  7.500000

Average number of steps between two list updates:  12.25
Average number of atoms in the shell:     0.01

Average number of steps between two list updates:  12.25
Average number of atoms in the shell:     0.01
Average number of steps between two list updates:  12.25
Average number of atoms in the shell:     0.01

Average number of steps between two list updates:  12.25
Average number of atoms in the shell:     0.01
Average number of steps between two list updates:  12.25
Average number of atoms in the shell:     0.01

Average number of steps between two list updates:  12.25
Average number of atoms in the shell:     0.01
Rc and Rl:   5.500000  7.500000
Rc and Rl:   5.500000  7.500000

Average number of steps between two list updates:  12.25
Average number of atoms in the shell:     0.01

Average number of steps between two list updates:  12.25
Average number of steps between two list updates:  12.25
Average number of atoms in the shell:     0.01

Average number of steps between two list updates:  12.25
Average number of atoms in the shell:     0.01
Rc and Rl:   5.500000  7.500000
Rc and Rl:   5.500000  7.500000

Rc and Rl:   5.500000  7.500000
Rc and Rl:   5.500000  7.500000

Average number of steps between two list updates:  12.25
Average number of atoms in the shell:     0.01

Average number of steps between two list updates:  12.25
Average number of atoms in the shell:     0.01
Average number of steps between two list updates:  12.25
Average number of atoms in the shell:     0.01

Average number of steps between two list updates:  12.25
Average number of atoms in the shell:     0.01
Average number of atoms in the shell:     0.01
Rc and Rl:   5.500000  7.500000
Rc and Rl:   5.500000  7.500000

Average number of steps between two list updates:  12.25
Average number of atoms in the shell:     0.01

Average number of steps between two list updates:  12.25
Average number of atoms in the shell:     0.01
Rc and Rl:   5.500000  7.500000
Rc and Rl:   5.500000  7.500000

Average number of steps between two list updates:  12.25
Average number of atoms in the shell:     0.01

Average number of steps between two list updates:  12.25
Average number of atoms in the shell:     0.01
Rc and Rl:   5.500000  7.500000
Rc and Rl:   5.500000  7.500000

Average number of steps between two list updates:  12.25
Average number of atoms in the shell:     0.01

Average number of steps between two list updates:  12.25
Average number of atoms in the shell:     0.01
Rc and Rl:   5.500000  7.500000
Rc and Rl:   5.500000  7.500000

Average number of steps between two list updates:  12.25
Average number of atoms in the shell:     0.01

Average number of steps between two list updates:  12.25
Average number of atoms in the shell:     0.01
Rc and Rl:   5.500000  7.500000
Rc and Rl:   5.500000  7.500000

Average number of steps between two list updates:  12.25
Average number of atoms in the shell:     0.01

Average number of steps between two list updates:  12.25
Average number of atoms in the shell:     0.01
Rc and Rl:   5.500000  7.500000
Rc and Rl:   5.500000  7.500000

Average number of steps between two list updates:  12.25
Average number of atoms in the shell:     0.01

Average number of steps between two list updates:  12.25
Average number of atoms in the shell:     0.01
Average number of steps between two list updates:  12.25
Average number of atoms in the shell:     0.01

Average number of steps between two list updates:  12.25
Average number of atoms in the shell:     0.01
Rc and Rl:   5.500000  7.500000
Rc and Rl:   5.500000  7.500000

Average number of steps between two list updates:  12.25
Average number of atoms in the shell:     0.01

Average number of steps between two list updates:  12.25
Average number of atoms in the shell:     0.01
Rc and Rl:   5.500000  7.500000
Rc and Rl:   5.500000  7.500000

Average number of steps between two list updates:  12.25
Average number of atoms in the shell:     0.01

Average number of steps between two list updates:  12.25
Average number of atoms in the shell:     0.01
Rc and Rl:   5.500000  7.500000
Rc and Rl:   5.500000  7.500000

Average number of steps between two list updates:  12.25
Average number of atoms in the shell:     0.01

Average number of steps between two list updates:  12.25
Average number of atoms in the shell:     0.01
Rc and Rl:   5.500000  7.500000
Rc and Rl:   5.500000  7.500000

Average number of steps between two list updates:  12.25
Average number of atoms in the shell:     0.01

Average number of steps between two list updates:  12.25
Average number of atoms in the shell:     0.01
Rc and Rl:   5.500000  7.500000
Rc and Rl:   5.500000  7.500000

Average number of steps between two list updates:  12.25
Average number of atoms in the shell:     0.01

Average number of steps between two list updates:  12.25
Average number of atoms in the shell:     0.01
Rc and Rl:   5.500000  7.500000
Rc and Rl:   5.500000  7.500000

Average number of steps between two list updates:  12.25
Average number of atoms in the shell:     0.01

Average number of steps between two list updates:  12.25
Average number of atoms in the shell:     0.01
Rc and Rl:   5.500000  7.500000
Rc and Rl:   5.500000  7.500000

Average number of steps between two list updates:  12.25
Average number of atoms in the shell:     0.01

Average number of steps between two list updates:  12.25
Average number of atoms in the shell:     0.01
Rc and Rl:   5.500000  7.500000
Rc and Rl:   5.500000  7.500000

Average number of steps between two list updates:  12.25
Average number of atoms in the shell:     0.01

Average number of steps between two list updates:  12.25
Average number of atoms in the shell:     0.01
Average number of steps between two list updates:  12.25
Average number of atoms in the shell:     0.01

Average number of steps between two list updates:  12.25
Average number of atoms in the shell:     0.01
Rc and Rl:   5.500000  7.500000
Rc and Rl:   5.500000  7.500000

Average number of steps between two list updates:  12.25
Average number of atoms in the shell:     0.01

Average number of steps between two list updates:  12.25
Average number of atoms in the shell:     0.01
Rc and Rl:   5.500000  7.500000
Rc and Rl:   5.500000  7.500000

Average number of steps between two list updates:  12.25
Average number of atoms in the shell:     0.01

Average number of steps between two list updates:  12.25
Average number of atoms in the shell:     0.01
     5000 T=  5954. E= 0.13047170E+05 F= 0.62844249E+04 EK= 0.67627E+04 SP= 0.00E+00 SK= 0.00E+00
Rc and Rl:   5.500000  7.500000

Average number of steps between two list updates:  12.25
Average number of atoms in the shell:     0.01
