 running on   40 nodes
 distr:  one band on    1 nodes,   40 groups
 md.x 0.99
 POSCAR found :  1 types and     8788 ions
Rc and Rl:   5.500000  7.500000
 TIPO = eam     
 TIPO1 = uknown p
 Using EAM

 EAM parameters: 
 C  =   4.0539  EPS  = 0.0057  A  = 4.3418  M  = 6.782  N  =  7.748  R1 =   5.500000


 ----------------------------------------------------------------------------- 
|                                                                             |
|           W    W    AA    RRRRR   N    N  II  N    N   GGGG   !!!           |
|           W    W   A  A   R    R  NN   N  II  NN   N  G    G  !!!           |
|           W    W  A    A  R    R  N N  N  II  N N  N  G       !!!           |
|           W WW W  AAAAAA  RRRRR   N  N N  II  N  N N  G  GGG   !            |
|           WW  WW  A    A  R   R   N   NN  II  N   NN  G    G                |
|           W    W  A    A  R    R  N    N  II  N    N   GGGG   !!!           |
|                                                                             |
|      VASP found  26361 degrees of freedom                                   |
|      the temperature will equal 2*E(kin)/ (degrees of freedom)              |
|      this differs from previous releases, where T was 2*E(kin)/(3 NIONS).   |
|      The new definition is more consistent                                  |
|                                                                             |
 ----------------------------------------------------------------------------- 

 Random init:       14804       22375
 Random init:       14804       22375
 Random init:       14804       22375
 Random init:       14804       22375
 Random init:       14804       22375
 Random init:       14804       22375
 Random init:       14804       22375
 Random init:       14804       22375
 Random init:       14804       22375
 Random init:       14804       22375
 Random init:       14804       22375
 Random init:       14804       22375
 Random init:       14804       22375
 Random init:       14804       22375
 Random init:       14804       22375
 Random init:       14804       22375
 Random init:       14804       22375
 Random init:       14804       22375
 Random init:       14804       22375
 Random init:       14804       22375
 Random init:       14804       22375
 Random init:       14804       22375
 Random init:       14804       22375
 Random init:       14804       22375
 Random init:       14804       22375
 Random init:       14804       22375
 Random init:       14804       22375
 Random init:       14804       22375
 Random init:       14804       22375
 Random init:       14804       22375
 Random init:       14804       22375
 Random init:       14804       22375
 Random init:       14804       22375
 Random init:       14804       22375
 Random init:       14804       22375
 Random init:       14804       22375
 Random init:       14804       22375
 Random init:       14804       22375
 Random init:       14804       22375
 Random init:       14804       22375
 alloco spazio per displ
       10 T=  1510. E= 0.60088206E+04 F= 0.42937277E+04 EK= 0.17151E+04 SP= 0.00E+00 SK= 0.00E+00
       20 T=  1513. E= 0.60088163E+04 F= 0.42900630E+04 EK= 0.17188E+04 SP= 0.00E+00 SK= 0.00E+00
       30 T=  1505. E= 0.60088271E+04 F= 0.42994140E+04 EK= 0.17094E+04 SP= 0.00E+00 SK= 0.00E+00
       40 T=  1501. E= 0.60088334E+04 F= 0.43040357E+04 EK= 0.17048E+04 SP= 0.00E+00 SK= 0.00E+00
       50 T=  1511. E= 0.60088214E+04 F= 0.42927854E+04 EK= 0.17160E+04 SP= 0.00E+00 SK= 0.00E+00
       60 T=  1518. E= 0.60088118E+04 F= 0.42841030E+04 EK= 0.17247E+04 SP= 0.00E+00 SK= 0.00E+00
       70 T=  1511. E= 0.60088231E+04 F= 0.42928435E+04 EK= 0.17160E+04 SP= 0.00E+00 SK= 0.00E+00
       80 T=  1501. E= 0.60088320E+04 F= 0.43037728E+04 EK= 0.17051E+04 SP= 0.00E+00 SK= 0.00E+00
       90 T=  1502. E= 0.60088267E+04 F= 0.43028596E+04 EK= 0.17060E+04 SP= 0.00E+00 SK= 0.00E+00
      100 T=  1506. E= 0.60088162E+04 F= 0.42982789E+04 EK= 0.17105E+04 SP= 0.00E+00 SK= 0.00E+00
      110 T=  1505. E= 0.60088299E+04 F= 0.42995379E+04 EK= 0.17093E+04 SP= 0.00E+00 SK= 0.00E+00
      120 T=  1512. E= 0.60088280E+04 F= 0.42916045E+04 EK= 0.17172E+04 SP= 0.00E+00 SK= 0.00E+00
      130 T=  1525. E= 0.60088179E+04 F= 0.42762725E+04 EK= 0.17325E+04 SP= 0.00E+00 SK= 0.00E+00
      140 T=  1530. E= 0.60088172E+04 F= 0.42707499E+04 EK= 0.17381E+04 SP= 0.00E+00 SK= 0.00E+00
      150 T=  1525. E= 0.60088280E+04 F= 0.42766834E+04 EK= 0.17321E+04 SP= 0.00E+00 SK= 0.00E+00
      160 T=  1521. E= 0.60088229E+04 F= 0.42812284E+04 EK= 0.17276E+04 SP= 0.00E+00 SK= 0.00E+00
      170 T=  1514. E= 0.60088248E+04 F= 0.42894422E+04 EK= 0.17194E+04 SP= 0.00E+00 SK= 0.00E+00
      180 T=  1505. E= 0.60088319E+04 F= 0.42989969E+04 EK= 0.17098E+04 SP= 0.00E+00 SK= 0.00E+00
      190 T=  1504. E= 0.60088238E+04 F= 0.43007868E+04 EK= 0.17080E+04 SP= 0.00E+00 SK= 0.00E+00
      200 T=  1500. E= 0.60088224E+04 F= 0.43050114E+04 EK= 0.17038E+04 SP= 0.00E+00 SK= 0.00E+00
      210 T=  1496. E= 0.60088388E+04 F= 0.43099118E+04 EK= 0.16989E+04 SP= 0.00E+00 SK= 0.00E+00
      220 T=  1507. E= 0.60088267E+04 F= 0.42972484E+04 EK= 0.17116E+04 SP= 0.00E+00 SK= 0.00E+00
      230 T=  1519. E= 0.60088147E+04 F= 0.42835168E+04 EK= 0.17253E+04 SP= 0.00E+00 SK= 0.00E+00
      240 T=  1517. E= 0.60088228E+04 F= 0.42855107E+04 EK= 0.17233E+04 SP= 0.00E+00 SK= 0.00E+00
      250 T=  1511. E= 0.60088329E+04 F= 0.42926507E+04 EK= 0.17162E+04 SP= 0.00E+00 SK= 0.00E+00
      260 T=  1510. E= 0.60088222E+04 F= 0.42936064E+04 EK= 0.17152E+04 SP= 0.00E+00 SK= 0.00E+00
      270 T=  1508. E= 0.60088285E+04 F= 0.42960557E+04 EK= 0.17128E+04 SP= 0.00E+00 SK= 0.00E+00
      280 T=  1507. E= 0.60088220E+04 F= 0.42966693E+04 EK= 0.17122E+04 SP= 0.00E+00 SK= 0.00E+00
      290 T=  1502. E= 0.60088207E+04 F= 0.43023366E+04 EK= 0.17065E+04 SP= 0.00E+00 SK= 0.00E+00
      300 T=  1491. E= 0.60088304E+04 F= 0.43150127E+04 EK= 0.16938E+04 SP= 0.00E+00 SK= 0.00E+00
      310 T=  1490. E= 0.60088378E+04 F= 0.43162178E+04 EK= 0.16926E+04 SP= 0.00E+00 SK= 0.00E+00
      320 T=  1506. E= 0.60088132E+04 F= 0.42986691E+04 EK= 0.17101E+04 SP= 0.00E+00 SK= 0.00E+00
      330 T=  1513. E= 0.60088220E+04 F= 0.42899526E+04 EK= 0.17189E+04 SP= 0.00E+00 SK= 0.00E+00
      340 T=  1513. E= 0.60088157E+04 F= 0.42901908E+04 EK= 0.17186E+04 SP= 0.00E+00 SK= 0.00E+00
      350 T=  1506. E= 0.60088392E+04 F= 0.42977798E+04 EK= 0.17111E+04 SP= 0.00E+00 SK= 0.00E+00
      360 T=  1513. E= 0.60088210E+04 F= 0.42900653E+04 EK= 0.17188E+04 SP= 0.00E+00 SK= 0.00E+00
      370 T=  1517. E= 0.60088177E+04 F= 0.42853721E+04 EK= 0.17234E+04 SP= 0.00E+00 SK= 0.00E+00
      380 T=  1512. E= 0.60088215E+04 F= 0.42912558E+04 EK= 0.17176E+04 SP= 0.00E+00 SK= 0.00E+00
      390 T=  1504. E= 0.60088313E+04 F= 0.43000075E+04 EK= 0.17088E+04 SP= 0.00E+00 SK= 0.00E+00
      400 T=  1507. E= 0.60088314E+04 F= 0.42967676E+04 EK= 0.17121E+04 SP= 0.00E+00 SK= 0.00E+00
      410 T=  1517. E= 0.60088197E+04 F= 0.42855728E+04 EK= 0.17232E+04 SP= 0.00E+00 SK= 0.00E+00
      420 T=  1519. E= 0.60088209E+04 F= 0.42835533E+04 EK= 0.17253E+04 SP= 0.00E+00 SK= 0.00E+00
      430 T=  1516. E= 0.60088264E+04 F= 0.42874363E+04 EK= 0.17214E+04 SP= 0.00E+00 SK= 0.00E+00
      440 T=  1512. E= 0.60088234E+04 F= 0.42916320E+04 EK= 0.17172E+04 SP= 0.00E+00 SK= 0.00E+00
      450 T=  1508. E= 0.60088284E+04 F= 0.42959824E+04 EK= 0.17128E+04 SP= 0.00E+00 SK= 0.00E+00
      460 T=  1507. E= 0.60088248E+04 F= 0.42968382E+04 EK= 0.17120E+04 SP= 0.00E+00 SK= 0.00E+00
      470 T=  1506. E= 0.60088274E+04 F= 0.42984740E+04 EK= 0.17104E+04 SP= 0.00E+00 SK= 0.00E+00
      480 T=  1505. E= 0.60088288E+04 F= 0.42990363E+04 EK= 0.17098E+04 SP= 0.00E+00 SK= 0.00E+00
      490 T=  1510. E= 0.60088327E+04 F= 0.42942800E+04 EK= 0.17146E+04 SP= 0.00E+00 SK= 0.00E+00
      500 T=  1518. E= 0.60088122E+04 F= 0.42850890E+04 EK= 0.17237E+04 SP= 0.00E+00 SK= 0.00E+00
      510 T=  1510. E= 0.60088218E+04 F= 0.42941751E+04 EK= 0.17146E+04 SP= 0.00E+00 SK= 0.00E+00
      520 T=  1497. E= 0.60088412E+04 F= 0.43089756E+04 EK= 0.16999E+04 SP= 0.00E+00 SK= 0.00E+00
      530 T=  1501. E= 0.60088333E+04 F= 0.43045139E+04 EK= 0.17043E+04 SP= 0.00E+00 SK= 0.00E+00
      540 T=  1511. E= 0.60088194E+04 F= 0.42923834E+04 EK= 0.17164E+04 SP= 0.00E+00 SK= 0.00E+00
      550 T=  1512. E= 0.60088308E+04 F= 0.42919409E+04 EK= 0.17169E+04 SP= 0.00E+00 SK= 0.00E+00
      560 T=  1509. E= 0.60088290E+04 F= 0.42949030E+04 EK= 0.17139E+04 SP= 0.00E+00 SK= 0.00E+00
      570 T=  1508. E= 0.60088353E+04 F= 0.42956662E+04 EK= 0.17132E+04 SP= 0.00E+00 SK= 0.00E+00
      580 T=  1513. E= 0.60088218E+04 F= 0.42899570E+04 EK= 0.17189E+04 SP= 0.00E+00 SK= 0.00E+00
      590 T=  1512. E= 0.60088292E+04 F= 0.42916773E+04 EK= 0.17172E+04 SP= 0.00E+00 SK= 0.00E+00
      600 T=  1509. E= 0.60088325E+04 F= 0.42946638E+04 EK= 0.17142E+04 SP= 0.00E+00 SK= 0.00E+00
      610 T=  1514. E= 0.60088305E+04 F= 0.42897577E+04 EK= 0.17191E+04 SP= 0.00E+00 SK= 0.00E+00
      620 T=  1521. E= 0.60088231E+04 F= 0.42815628E+04 EK= 0.17273E+04 SP= 0.00E+00 SK= 0.00E+00
      630 T=  1523. E= 0.60088311E+04 F= 0.42785736E+04 EK= 0.17303E+04 SP= 0.00E+00 SK= 0.00E+00
      640 T=  1526. E= 0.60088166E+04 F= 0.42753489E+04 EK= 0.17335E+04 SP= 0.00E+00 SK= 0.00E+00
      650 T=  1516. E= 0.60088239E+04 F= 0.42870722E+04 EK= 0.17218E+04 SP= 0.00E+00 SK= 0.00E+00
      660 T=  1500. E= 0.60088397E+04 F= 0.43046685E+04 EK= 0.17042E+04 SP= 0.00E+00 SK= 0.00E+00
      670 T=  1501. E= 0.60088315E+04 F= 0.43044925E+04 EK= 0.17043E+04 SP= 0.00E+00 SK= 0.00E+00
      680 T=  1509. E= 0.60088251E+04 F= 0.42950220E+04 EK= 0.17138E+04 SP= 0.00E+00 SK= 0.00E+00
      690 T=  1514. E= 0.60088303E+04 F= 0.42889458E+04 EK= 0.17199E+04 SP= 0.00E+00 SK= 0.00E+00
      700 T=  1520. E= 0.60088263E+04 F= 0.42829179E+04 EK= 0.17259E+04 SP= 0.00E+00 SK= 0.00E+00
      710 T=  1520. E= 0.60088223E+04 F= 0.42825089E+04 EK= 0.17263E+04 SP= 0.00E+00 SK= 0.00E+00
      720 T=  1514. E= 0.60088250E+04 F= 0.42890950E+04 EK= 0.17197E+04 SP= 0.00E+00 SK= 0.00E+00
      730 T=  1506. E= 0.60088294E+04 F= 0.42977610E+04 EK= 0.17111E+04 SP= 0.00E+00 SK= 0.00E+00
      740 T=  1503. E= 0.60088295E+04 F= 0.43012593E+04 EK= 0.17076E+04 SP= 0.00E+00 SK= 0.00E+00
      750 T=  1505. E= 0.60088289E+04 F= 0.42992477E+04 EK= 0.17096E+04 SP= 0.00E+00 SK= 0.00E+00
      760 T=  1510. E= 0.60088313E+04 F= 0.42934511E+04 EK= 0.17154E+04 SP= 0.00E+00 SK= 0.00E+00
      770 T=  1519. E= 0.60088253E+04 F= 0.42836543E+04 EK= 0.17252E+04 SP= 0.00E+00 SK= 0.00E+00
      780 T=  1522. E= 0.60088239E+04 F= 0.42802237E+04 EK= 0.17286E+04 SP= 0.00E+00 SK= 0.00E+00
      790 T=  1519. E= 0.60088290E+04 F= 0.42835759E+04 EK= 0.17253E+04 SP= 0.00E+00 SK= 0.00E+00
      800 T=  1514. E= 0.60088227E+04 F= 0.42889720E+04 EK= 0.17199E+04 SP= 0.00E+00 SK= 0.00E+00
      810 T=  1505. E= 0.60088331E+04 F= 0.42990919E+04 EK= 0.17097E+04 SP= 0.00E+00 SK= 0.00E+00
      820 T=  1505. E= 0.60088394E+04 F= 0.42999726E+04 EK= 0.17089E+04 SP= 0.00E+00 SK= 0.00E+00
      830 T=  1516. E= 0.60088253E+04 F= 0.42864420E+04 EK= 0.17224E+04 SP= 0.00E+00 SK= 0.00E+00
      840 T=  1526. E= 0.60088253E+04 F= 0.42755857E+04 EK= 0.17332E+04 SP= 0.00E+00 SK= 0.00E+00
      850 T=  1527. E= 0.60088203E+04 F= 0.42745698E+04 EK= 0.17343E+04 SP= 0.00E+00 SK= 0.00E+00
      860 T=  1518. E= 0.60088368E+04 F= 0.42841836E+04 EK= 0.17247E+04 SP= 0.00E+00 SK= 0.00E+00
      870 T=  1517. E= 0.60088299E+04 F= 0.42853330E+04 EK= 0.17235E+04 SP= 0.00E+00 SK= 0.00E+00
      880 T=  1518. E= 0.60088249E+04 F= 0.42841932E+04 EK= 0.17246E+04 SP= 0.00E+00 SK= 0.00E+00
      890 T=  1515. E= 0.60088307E+04 F= 0.42875598E+04 EK= 0.17213E+04 SP= 0.00E+00 SK= 0.00E+00
      900 T=  1516. E= 0.60088309E+04 F= 0.42874179E+04 EK= 0.17214E+04 SP= 0.00E+00 SK= 0.00E+00
      910 T=  1519. E= 0.60088270E+04 F= 0.42835632E+04 EK= 0.17253E+04 SP= 0.00E+00 SK= 0.00E+00
      920 T=  1520. E= 0.60088295E+04 F= 0.42828969E+04 EK= 0.17259E+04 SP= 0.00E+00 SK= 0.00E+00
      930 T=  1520. E= 0.60088309E+04 F= 0.42818621E+04 EK= 0.17270E+04 SP= 0.00E+00 SK= 0.00E+00
      940 T=  1521. E= 0.60088212E+04 F= 0.42810915E+04 EK= 0.17277E+04 SP= 0.00E+00 SK= 0.00E+00
      950 T=  1512. E= 0.60088283E+04 F= 0.42909364E+04 EK= 0.17179E+04 SP= 0.00E+00 SK= 0.00E+00
      960 T=  1503. E= 0.60088305E+04 F= 0.43012780E+04 EK= 0.17076E+04 SP= 0.00E+00 SK= 0.00E+00
      970 T=  1502. E= 0.60088357E+04 F= 0.43033530E+04 EK= 0.17055E+04 SP= 0.00E+00 SK= 0.00E+00
      980 T=  1508. E= 0.60088172E+04 F= 0.42955544E+04 EK= 0.17133E+04 SP= 0.00E+00 SK= 0.00E+00
      990 T=  1508. E= 0.60088289E+04 F= 0.42963326E+04 EK= 0.17125E+04 SP= 0.00E+00 SK= 0.00E+00
     1000 T=  1508. E= 0.60088251E+04 F= 0.42958491E+04 EK= 0.17130E+04 SP= 0.00E+00 SK= 0.00E+00
     1010 T=  1509. E= 0.60088275E+04 F= 0.42946886E+04 EK= 0.17141E+04 SP= 0.00E+00 SK= 0.00E+00
     1020 T=  1513. E= 0.60088297E+04 F= 0.42901502E+04 EK= 0.17187E+04 SP= 0.00E+00 SK= 0.00E+00
     1030 T=  1520. E= 0.60088188E+04 F= 0.42822535E+04 EK= 0.17266E+04 SP= 0.00E+00 SK= 0.00E+00
     1040 T=  1516. E= 0.60088234E+04 F= 0.42867598E+04 EK= 0.17221E+04 SP= 0.00E+00 SK= 0.00E+00
     1050 T=  1509. E= 0.60088421E+04 F= 0.42951615E+04 EK= 0.17137E+04 SP= 0.00E+00 SK= 0.00E+00
     1060 T=  1518. E= 0.60088233E+04 F= 0.42850374E+04 EK= 0.17238E+04 SP= 0.00E+00 SK= 0.00E+00
     1070 T=  1524. E= 0.60088185E+04 F= 0.42781842E+04 EK= 0.17306E+04 SP= 0.00E+00 SK= 0.00E+00
     1080 T=  1516. E= 0.60088244E+04 F= 0.42864129E+04 EK= 0.17224E+04 SP= 0.00E+00 SK= 0.00E+00
     1090 T=  1505. E= 0.60088382E+04 F= 0.42990476E+04 EK= 0.17098E+04 SP= 0.00E+00 SK= 0.00E+00
     1100 T=  1506. E= 0.60088318E+04 F= 0.42987777E+04 EK= 0.17101E+04 SP= 0.00E+00 SK= 0.00E+00
     1110 T=  1513. E= 0.60088263E+04 F= 0.42906001E+04 EK= 0.17182E+04 SP= 0.00E+00 SK= 0.00E+00
     1120 T=  1519. E= 0.60088255E+04 F= 0.42830528E+04 EK= 0.17258E+04 SP= 0.00E+00 SK= 0.00E+00
     1130 T=  1522. E= 0.60088163E+04 F= 0.42796064E+04 EK= 0.17292E+04 SP= 0.00E+00 SK= 0.00E+00
     1140 T=  1513. E= 0.60088317E+04 F= 0.42898564E+04 EK= 0.17190E+04 SP= 0.00E+00 SK= 0.00E+00
     1150 T=  1508. E= 0.60088241E+04 F= 0.42962433E+04 EK= 0.17126E+04 SP= 0.00E+00 SK= 0.00E+00
     1160 T=  1504. E= 0.60088271E+04 F= 0.43010118E+04 EK= 0.17078E+04 SP= 0.00E+00 SK= 0.00E+00
     1170 T=  1503. E= 0.60088329E+04 F= 0.43017387E+04 EK= 0.17071E+04 SP= 0.00E+00 SK= 0.00E+00
     1180 T=  1512. E= 0.60088285E+04 F= 0.42910792E+04 EK= 0.17177E+04 SP= 0.00E+00 SK= 0.00E+00
     1190 T=  1523. E= 0.60088190E+04 F= 0.42786451E+04 EK= 0.17302E+04 SP= 0.00E+00 SK= 0.00E+00
     1200 T=  1524. E= 0.60088241E+04 F= 0.42782347E+04 EK= 0.17306E+04 SP= 0.00E+00 SK= 0.00E+00
     1210 T=  1517. E= 0.60088269E+04 F= 0.42858654E+04 EK= 0.17230E+04 SP= 0.00E+00 SK= 0.00E+00
     1220 T=  1509. E= 0.60088298E+04 F= 0.42944218E+04 EK= 0.17144E+04 SP= 0.00E+00 SK= 0.00E+00
     1230 T=  1507. E= 0.60088381E+04 F= 0.42974702E+04 EK= 0.17114E+04 SP= 0.00E+00 SK= 0.00E+00
     1240 T=  1516. E= 0.60088242E+04 F= 0.42874253E+04 EK= 0.17214E+04 SP= 0.00E+00 SK= 0.00E+00
     1250 T=  1523. E= 0.60088184E+04 F= 0.42788576E+04 EK= 0.17300E+04 SP= 0.00E+00 SK= 0.00E+00
     1260 T=  1520. E= 0.60088213E+04 F= 0.42819029E+04 EK= 0.17269E+04 SP= 0.00E+00 SK= 0.00E+00
     1270 T=  1513. E= 0.60088298E+04 F= 0.42903969E+04 EK= 0.17184E+04 SP= 0.00E+00 SK= 0.00E+00
     1280 T=  1512. E= 0.60088265E+04 F= 0.42918554E+04 EK= 0.17170E+04 SP= 0.00E+00 SK= 0.00E+00
     1290 T=  1514. E= 0.60088278E+04 F= 0.42892908E+04 EK= 0.17195E+04 SP= 0.00E+00 SK= 0.00E+00
     1300 T=  1519. E= 0.60088200E+04 F= 0.42834279E+04 EK= 0.17254E+04 SP= 0.00E+00 SK= 0.00E+00
     1310 T=  1518. E= 0.60088190E+04 F= 0.42851496E+04 EK= 0.17237E+04 SP= 0.00E+00 SK= 0.00E+00
     1320 T=  1509. E= 0.60088357E+04 F= 0.42954075E+04 EK= 0.17134E+04 SP= 0.00E+00 SK= 0.00E+00
     1330 T=  1510. E= 0.60088297E+04 F= 0.42935182E+04 EK= 0.17153E+04 SP= 0.00E+00 SK= 0.00E+00
     1340 T=  1518. E= 0.60088212E+04 F= 0.42844808E+04 EK= 0.17243E+04 SP= 0.00E+00 SK= 0.00E+00
     1350 T=  1520. E= 0.60088201E+04 F= 0.42823032E+04 EK= 0.17265E+04 SP= 0.00E+00 SK= 0.00E+00
     1360 T=  1513. E= 0.60088239E+04 F= 0.42904666E+04 EK= 0.17184E+04 SP= 0.00E+00 SK= 0.00E+00
     1370 T=  1503. E= 0.60088353E+04 F= 0.43012039E+04 EK= 0.17076E+04 SP= 0.00E+00 SK= 0.00E+00
     1380 T=  1505. E= 0.60088312E+04 F= 0.42997750E+04 EK= 0.17091E+04 SP= 0.00E+00 SK= 0.00E+00
     1390 T=  1515. E= 0.60088208E+04 F= 0.42885324E+04 EK= 0.17203E+04 SP= 0.00E+00 SK= 0.00E+00
     1400 T=  1520. E= 0.60088215E+04 F= 0.42822891E+04 EK= 0.17265E+04 SP= 0.00E+00 SK= 0.00E+00
     1410 T=  1519. E= 0.60088187E+04 F= 0.42839559E+04 EK= 0.17249E+04 SP= 0.00E+00 SK= 0.00E+00
     1420 T=  1512. E= 0.60088271E+04 F= 0.42919983E+04 EK= 0.17168E+04 SP= 0.00E+00 SK= 0.00E+00
     1430 T=  1508. E= 0.60088261E+04 F= 0.42958929E+04 EK= 0.17129E+04 SP= 0.00E+00 SK= 0.00E+00
     1440 T=  1509. E= 0.60088207E+04 F= 0.42943983E+04 EK= 0.17144E+04 SP= 0.00E+00 SK= 0.00E+00
     1450 T=  1512. E= 0.60088315E+04 F= 0.42912507E+04 EK= 0.17176E+04 SP= 0.00E+00 SK= 0.00E+00
     1460 T=  1523. E= 0.60088198E+04 F= 0.42791502E+04 EK= 0.17297E+04 SP= 0.00E+00 SK= 0.00E+00
     1470 T=  1529. E= 0.60088199E+04 F= 0.42725300E+04 EK= 0.17363E+04 SP= 0.00E+00 SK= 0.00E+00
     1480 T=  1526. E= 0.60088253E+04 F= 0.42753143E+04 EK= 0.17335E+04 SP= 0.00E+00 SK= 0.00E+00
     1490 T=  1522. E= 0.60088301E+04 F= 0.42806199E+04 EK= 0.17282E+04 SP= 0.00E+00 SK= 0.00E+00
     1500 T=  1518. E= 0.60088303E+04 F= 0.42842101E+04 EK= 0.17246E+04 SP= 0.00E+00 SK= 0.00E+00
     1510 T=  1516. E= 0.60088211E+04 F= 0.42873477E+04 EK= 0.17215E+04 SP= 0.00E+00 SK= 0.00E+00
     1520 T=  1505. E= 0.60088296E+04 F= 0.42988846E+04 EK= 0.17099E+04 SP= 0.00E+00 SK= 0.00E+00
     1530 T=  1500. E= 0.60088401E+04 F= 0.43053131E+04 EK= 0.17035E+04 SP= 0.00E+00 SK= 0.00E+00
     1540 T=  1508. E= 0.60088215E+04 F= 0.42956616E+04 EK= 0.17132E+04 SP= 0.00E+00 SK= 0.00E+00
     1550 T=  1513. E= 0.60088252E+04 F= 0.42907149E+04 EK= 0.17181E+04 SP= 0.00E+00 SK= 0.00E+00
     1560 T=  1512. E= 0.60088255E+04 F= 0.42909421E+04 EK= 0.17179E+04 SP= 0.00E+00 SK= 0.00E+00
     1570 T=  1511. E= 0.60088273E+04 F= 0.42925767E+04 EK= 0.17163E+04 SP= 0.00E+00 SK= 0.00E+00
     1580 T=  1514. E= 0.60088265E+04 F= 0.42895181E+04 EK= 0.17193E+04 SP= 0.00E+00 SK= 0.00E+00
     1590 T=  1521. E= 0.60088248E+04 F= 0.42810812E+04 EK= 0.17277E+04 SP= 0.00E+00 SK= 0.00E+00
     1600 T=  1529. E= 0.60088239E+04 F= 0.42727111E+04 EK= 0.17361E+04 SP= 0.00E+00 SK= 0.00E+00
     1610 T=  1533. E= 0.60088223E+04 F= 0.42674844E+04 EK= 0.17413E+04 SP= 0.00E+00 SK= 0.00E+00
     1620 T=  1533. E= 0.60088275E+04 F= 0.42674450E+04 EK= 0.17414E+04 SP= 0.00E+00 SK= 0.00E+00
     1630 T=  1534. E= 0.60088258E+04 F= 0.42667216E+04 EK= 0.17421E+04 SP= 0.00E+00 SK= 0.00E+00
     1640 T=  1532. E= 0.60088144E+04 F= 0.42686312E+04 EK= 0.17402E+04 SP= 0.00E+00 SK= 0.00E+00
     1650 T=  1518. E= 0.60088255E+04 F= 0.42847849E+04 EK= 0.17240E+04 SP= 0.00E+00 SK= 0.00E+00
     1660 T=  1506. E= 0.60088309E+04 F= 0.42982813E+04 EK= 0.17105E+04 SP= 0.00E+00 SK= 0.00E+00
     1670 T=  1504. E= 0.60088233E+04 F= 0.43009981E+04 EK= 0.17078E+04 SP= 0.00E+00 SK= 0.00E+00
     1680 T=  1502. E= 0.60088307E+04 F= 0.43026011E+04 EK= 0.17062E+04 SP= 0.00E+00 SK= 0.00E+00
     1690 T=  1505. E= 0.60088228E+04 F= 0.42996493E+04 EK= 0.17092E+04 SP= 0.00E+00 SK= 0.00E+00
     1700 T=  1505. E= 0.60088232E+04 F= 0.42993166E+04 EK= 0.17095E+04 SP= 0.00E+00 SK= 0.00E+00
     1710 T=  1501. E= 0.60088241E+04 F= 0.43042584E+04 EK= 0.17046E+04 SP= 0.00E+00 SK= 0.00E+00
     1720 T=  1495. E= 0.60088203E+04 F= 0.43111436E+04 EK= 0.16977E+04 SP= 0.00E+00 SK= 0.00E+00
     1730 T=  1487. E= 0.60088326E+04 F= 0.43197060E+04 EK= 0.16891E+04 SP= 0.00E+00 SK= 0.00E+00
     1740 T=  1491. E= 0.60088349E+04 F= 0.43158281E+04 EK= 0.16930E+04 SP= 0.00E+00 SK= 0.00E+00
     1750 T=  1507. E= 0.60088164E+04 F= 0.42970125E+04 EK= 0.17118E+04 SP= 0.00E+00 SK= 0.00E+00
     1760 T=  1515. E= 0.60088161E+04 F= 0.42879365E+04 EK= 0.17209E+04 SP= 0.00E+00 SK= 0.00E+00
     1770 T=  1510. E= 0.60088181E+04 F= 0.42938305E+04 EK= 0.17150E+04 SP= 0.00E+00 SK= 0.00E+00
     1780 T=  1502. E= 0.60088276E+04 F= 0.43029070E+04 EK= 0.17059E+04 SP= 0.00E+00 SK= 0.00E+00
     1790 T=  1501. E= 0.60088257E+04 F= 0.43043863E+04 EK= 0.17044E+04 SP= 0.00E+00 SK= 0.00E+00
     1800 T=  1504. E= 0.60088207E+04 F= 0.43001673E+04 EK= 0.17087E+04 SP= 0.00E+00 SK= 0.00E+00
     1810 T=  1505. E= 0.60088179E+04 F= 0.42992078E+04 EK= 0.17096E+04 SP= 0.00E+00 SK= 0.00E+00
     1820 T=  1501. E= 0.60088266E+04 F= 0.43037667E+04 EK= 0.17051E+04 SP= 0.00E+00 SK= 0.00E+00
     1830 T=  1502. E= 0.60088281E+04 F= 0.43025502E+04 EK= 0.17063E+04 SP= 0.00E+00 SK= 0.00E+00
     1840 T=  1509. E= 0.60088211E+04 F= 0.42950874E+04 EK= 0.17137E+04 SP= 0.00E+00 SK= 0.00E+00
     1850 T=  1513. E= 0.60088267E+04 F= 0.42899934E+04 EK= 0.17188E+04 SP= 0.00E+00 SK= 0.00E+00
     1860 T=  1517. E= 0.60088278E+04 F= 0.42859268E+04 EK= 0.17229E+04 SP= 0.00E+00 SK= 0.00E+00
     1870 T=  1520. E= 0.60088214E+04 F= 0.42818181E+04 EK= 0.17270E+04 SP= 0.00E+00 SK= 0.00E+00
     1880 T=  1520. E= 0.60088211E+04 F= 0.42823798E+04 EK= 0.17264E+04 SP= 0.00E+00 SK= 0.00E+00
     1890 T=  1518. E= 0.60088240E+04 F= 0.42850348E+04 EK= 0.17238E+04 SP= 0.00E+00 SK= 0.00E+00
     1900 T=  1516. E= 0.60088197E+04 F= 0.42874772E+04 EK= 0.17213E+04 SP= 0.00E+00 SK= 0.00E+00
     1910 T=  1510. E= 0.60088242E+04 F= 0.42932984E+04 EK= 0.17155E+04 SP= 0.00E+00 SK= 0.00E+00
     1920 T=  1504. E= 0.60088181E+04 F= 0.43002364E+04 EK= 0.17086E+04 SP= 0.00E+00 SK= 0.00E+00
     1930 T=  1494. E= 0.60088315E+04 F= 0.43122341E+04 EK= 0.16966E+04 SP= 0.00E+00 SK= 0.00E+00
     1940 T=  1493. E= 0.60088318E+04 F= 0.43136198E+04 EK= 0.16952E+04 SP= 0.00E+00 SK= 0.00E+00
     1950 T=  1502. E= 0.60088209E+04 F= 0.43031907E+04 EK= 0.17056E+04 SP= 0.00E+00 SK= 0.00E+00
     1960 T=  1510. E= 0.60088259E+04 F= 0.42941295E+04 EK= 0.17147E+04 SP= 0.00E+00 SK= 0.00E+00
     1970 T=  1515. E= 0.60088187E+04 F= 0.42882315E+04 EK= 0.17206E+04 SP= 0.00E+00 SK= 0.00E+00
     1980 T=  1511. E= 0.60088241E+04 F= 0.42929105E+04 EK= 0.17159E+04 SP= 0.00E+00 SK= 0.00E+00
     1990 T=  1504. E= 0.60088303E+04 F= 0.43003937E+04 EK= 0.17084E+04 SP= 0.00E+00 SK= 0.00E+00
     2000 T=  1503. E= 0.60088310E+04 F= 0.43020901E+04 EK= 0.17067E+04 SP= 0.00E+00 SK= 0.00E+00
     2010 T=  1506. E= 0.60088289E+04 F= 0.42982343E+04 EK= 0.17106E+04 SP= 0.00E+00 SK= 0.00E+00
     2020 T=  1510. E= 0.60088246E+04 F= 0.42932060E+04 EK= 0.17156E+04 SP= 0.00E+00 SK= 0.00E+00
     2030 T=  1509. E= 0.60088222E+04 F= 0.42953010E+04 EK= 0.17135E+04 SP= 0.00E+00 SK= 0.00E+00
     2040 T=  1500. E= 0.60088306E+04 F= 0.43052439E+04 EK= 0.17036E+04 SP= 0.00E+00 SK= 0.00E+00
     2050 T=  1494. E= 0.60088303E+04 F= 0.43117958E+04 EK= 0.16970E+04 SP= 0.00E+00 SK= 0.00E+00
     2060 T=  1496. E= 0.60088315E+04 F= 0.43093384E+04 EK= 0.16995E+04 SP= 0.00E+00 SK= 0.00E+00
     2070 T=  1505. E= 0.60088176E+04 F= 0.42990571E+04 EK= 0.17098E+04 SP= 0.00E+00 SK= 0.00E+00
     2080 T=  1506. E= 0.60088200E+04 F= 0.42986456E+04 EK= 0.17102E+04 SP= 0.00E+00 SK= 0.00E+00
     2090 T=  1496. E= 0.60088244E+04 F= 0.43091923E+04 EK= 0.16996E+04 SP= 0.00E+00 SK= 0.00E+00
     2100 T=  1487. E= 0.60088392E+04 F= 0.43200330E+04 EK= 0.16888E+04 SP= 0.00E+00 SK= 0.00E+00
     2110 T=  1495. E= 0.60088179E+04 F= 0.43110669E+04 EK= 0.16978E+04 SP= 0.00E+00 SK= 0.00E+00
     2120 T=  1501. E= 0.60088178E+04 F= 0.43041440E+04 EK= 0.17047E+04 SP= 0.00E+00 SK= 0.00E+00
     2130 T=  1500. E= 0.60088317E+04 F= 0.43051638E+04 EK= 0.17037E+04 SP= 0.00E+00 SK= 0.00E+00
     2140 T=  1506. E= 0.60088241E+04 F= 0.42986803E+04 EK= 0.17101E+04 SP= 0.00E+00 SK= 0.00E+00
     2150 T=  1511. E= 0.60088210E+04 F= 0.42930590E+04 EK= 0.17158E+04 SP= 0.00E+00 SK= 0.00E+00
     2160 T=  1512. E= 0.60088271E+04 F= 0.42914990E+04 EK= 0.17173E+04 SP= 0.00E+00 SK= 0.00E+00
     2170 T=  1514. E= 0.60088152E+04 F= 0.42895024E+04 EK= 0.17193E+04 SP= 0.00E+00 SK= 0.00E+00
     2180 T=  1506. E= 0.60088268E+04 F= 0.42977409E+04 EK= 0.17111E+04 SP= 0.00E+00 SK= 0.00E+00
     2190 T=  1502. E= 0.60088364E+04 F= 0.43032350E+04 EK= 0.17056E+04 SP= 0.00E+00 SK= 0.00E+00
     2200 T=  1508. E= 0.60088215E+04 F= 0.42959749E+04 EK= 0.17128E+04 SP= 0.00E+00 SK= 0.00E+00
     2210 T=  1513. E= 0.60088168E+04 F= 0.42904989E+04 EK= 0.17183E+04 SP= 0.00E+00 SK= 0.00E+00
     2220 T=  1507. E= 0.60088192E+04 F= 0.42971175E+04 EK= 0.17117E+04 SP= 0.00E+00 SK= 0.00E+00
     2230 T=  1498. E= 0.60088387E+04 F= 0.43078065E+04 EK= 0.17010E+04 SP= 0.00E+00 SK= 0.00E+00
     2240 T=  1504. E= 0.60088170E+04 F= 0.43004049E+04 EK= 0.17084E+04 SP= 0.00E+00 SK= 0.00E+00
     2250 T=  1507. E= 0.60088250E+04 F= 0.42966051E+04 EK= 0.17122E+04 SP= 0.00E+00 SK= 0.00E+00
     2260 T=  1509. E= 0.60088246E+04 F= 0.42948604E+04 EK= 0.17140E+04 SP= 0.00E+00 SK= 0.00E+00
     2270 T=  1511. E= 0.60088242E+04 F= 0.42930506E+04 EK= 0.17158E+04 SP= 0.00E+00 SK= 0.00E+00
     2280 T=  1511. E= 0.60088246E+04 F= 0.42926256E+04 EK= 0.17162E+04 SP= 0.00E+00 SK= 0.00E+00
     2290 T=  1514. E= 0.60088362E+04 F= 0.42890220E+04 EK= 0.17198E+04 SP= 0.00E+00 SK= 0.00E+00
     2300 T=  1527. E= 0.60088126E+04 F= 0.42744241E+04 EK= 0.17344E+04 SP= 0.00E+00 SK= 0.00E+00
     2310 T=  1525. E= 0.60088199E+04 F= 0.42763659E+04 EK= 0.17325E+04 SP= 0.00E+00 SK= 0.00E+00
     2320 T=  1512. E= 0.60088285E+04 F= 0.42910017E+04 EK= 0.17178E+04 SP= 0.00E+00 SK= 0.00E+00
     2330 T=  1503. E= 0.60088321E+04 F= 0.43020933E+04 EK= 0.17067E+04 SP= 0.00E+00 SK= 0.00E+00
     2340 T=  1504. E= 0.60088298E+04 F= 0.43007767E+04 EK= 0.17081E+04 SP= 0.00E+00 SK= 0.00E+00
     2350 T=  1512. E= 0.60088178E+04 F= 0.42909258E+04 EK= 0.17179E+04 SP= 0.00E+00 SK= 0.00E+00
     2360 T=  1515. E= 0.60088281E+04 F= 0.42881591E+04 EK= 0.17207E+04 SP= 0.00E+00 SK= 0.00E+00
     2370 T=  1519. E= 0.60088268E+04 F= 0.42834351E+04 EK= 0.17254E+04 SP= 0.00E+00 SK= 0.00E+00
     2380 T=  1524. E= 0.60088188E+04 F= 0.42778811E+04 EK= 0.17309E+04 SP= 0.00E+00 SK= 0.00E+00
     2390 T=  1517. E= 0.60088196E+04 F= 0.42852376E+04 EK= 0.17236E+04 SP= 0.00E+00 SK= 0.00E+00
     2400 T=  1504. E= 0.60088324E+04 F= 0.43008958E+04 EK= 0.17079E+04 SP= 0.00E+00 SK= 0.00E+00
     2410 T=  1496. E= 0.60088273E+04 F= 0.43093216E+04 EK= 0.16995E+04 SP= 0.00E+00 SK= 0.00E+00
     2420 T=  1497. E= 0.60088418E+04 F= 0.43082850E+04 EK= 0.17006E+04 SP= 0.00E+00 SK= 0.00E+00
     2430 T=  1517. E= 0.60088199E+04 F= 0.42854654E+04 EK= 0.17234E+04 SP= 0.00E+00 SK= 0.00E+00
     2440 T=  1531. E= 0.60088112E+04 F= 0.42700192E+04 EK= 0.17388E+04 SP= 0.00E+00 SK= 0.00E+00
     2450 T=  1528. E= 0.60088234E+04 F= 0.42735287E+04 EK= 0.17353E+04 SP= 0.00E+00 SK= 0.00E+00
     2460 T=  1523. E= 0.60088268E+04 F= 0.42787865E+04 EK= 0.17300E+04 SP= 0.00E+00 SK= 0.00E+00
     2470 T=  1520. E= 0.60088296E+04 F= 0.42826023E+04 EK= 0.17262E+04 SP= 0.00E+00 SK= 0.00E+00
     2480 T=  1522. E= 0.60088326E+04 F= 0.42804981E+04 EK= 0.17283E+04 SP= 0.00E+00 SK= 0.00E+00
     2490 T=  1528. E= 0.60088172E+04 F= 0.42734650E+04 EK= 0.17354E+04 SP= 0.00E+00 SK= 0.00E+00
     2500 T=  1523. E= 0.60088242E+04 F= 0.42791662E+04 EK= 0.17297E+04 SP= 0.00E+00 SK= 0.00E+00
     2510 T=  1512. E= 0.60088262E+04 F= 0.42914326E+04 EK= 0.17174E+04 SP= 0.00E+00 SK= 0.00E+00
     2520 T=  1500. E= 0.60088282E+04 F= 0.43047099E+04 EK= 0.17041E+04 SP= 0.00E+00 SK= 0.00E+00
     2530 T=  1491. E= 0.60088318E+04 F= 0.43156423E+04 EK= 0.16932E+04 SP= 0.00E+00 SK= 0.00E+00
     2540 T=  1488. E= 0.60088350E+04 F= 0.43187873E+04 EK= 0.16900E+04 SP= 0.00E+00 SK= 0.00E+00
     2550 T=  1496. E= 0.60088271E+04 F= 0.43096778E+04 EK= 0.16991E+04 SP= 0.00E+00 SK= 0.00E+00
     2560 T=  1507. E= 0.60088275E+04 F= 0.42972232E+04 EK= 0.17116E+04 SP= 0.00E+00 SK= 0.00E+00
     2570 T=  1518. E= 0.60088191E+04 F= 0.42847655E+04 EK= 0.17241E+04 SP= 0.00E+00 SK= 0.00E+00
     2580 T=  1520. E= 0.60088136E+04 F= 0.42818648E+04 EK= 0.17269E+04 SP= 0.00E+00 SK= 0.00E+00
     2590 T=  1509. E= 0.60088275E+04 F= 0.42948970E+04 EK= 0.17139E+04 SP= 0.00E+00 SK= 0.00E+00
     2600 T=  1502. E= 0.60088388E+04 F= 0.43033861E+04 EK= 0.17055E+04 SP= 0.00E+00 SK= 0.00E+00
     2610 T=  1511. E= 0.60088186E+04 F= 0.42928492E+04 EK= 0.17160E+04 SP= 0.00E+00 SK= 0.00E+00
     2620 T=  1515. E= 0.60088107E+04 F= 0.42879081E+04 EK= 0.17209E+04 SP= 0.00E+00 SK= 0.00E+00
     2630 T=  1504. E= 0.60088331E+04 F= 0.43002820E+04 EK= 0.17086E+04 SP= 0.00E+00 SK= 0.00E+00
     2640 T=  1502. E= 0.60088342E+04 F= 0.43030265E+04 EK= 0.17058E+04 SP= 0.00E+00 SK= 0.00E+00
     2650 T=  1513. E= 0.60088239E+04 F= 0.42905404E+04 EK= 0.17183E+04 SP= 0.00E+00 SK= 0.00E+00
     2660 T=  1521. E= 0.60088120E+04 F= 0.42816336E+04 EK= 0.17272E+04 SP= 0.00E+00 SK= 0.00E+00
     2670 T=  1512. E= 0.60088248E+04 F= 0.42909846E+04 EK= 0.17178E+04 SP= 0.00E+00 SK= 0.00E+00
     2680 T=  1503. E= 0.60088349E+04 F= 0.43013412E+04 EK= 0.17075E+04 SP= 0.00E+00 SK= 0.00E+00
     2690 T=  1508. E= 0.60088257E+04 F= 0.42962265E+04 EK= 0.17126E+04 SP= 0.00E+00 SK= 0.00E+00
     2700 T=  1516. E= 0.60088178E+04 F= 0.42869763E+04 EK= 0.17218E+04 SP= 0.00E+00 SK= 0.00E+00
     2710 T=  1516. E= 0.60088188E+04 F= 0.42869276E+04 EK= 0.17219E+04 SP= 0.00E+00 SK= 0.00E+00
     2720 T=  1509. E= 0.60088234E+04 F= 0.42943276E+04 EK= 0.17145E+04 SP= 0.00E+00 SK= 0.00E+00
     2730 T=  1505. E= 0.60088242E+04 F= 0.42998324E+04 EK= 0.17090E+04 SP= 0.00E+00 SK= 0.00E+00
     2740 T=  1506. E= 0.60088186E+04 F= 0.42987305E+04 EK= 0.17101E+04 SP= 0.00E+00 SK= 0.00E+00
     2750 T=  1506. E= 0.60088200E+04 F= 0.42983428E+04 EK= 0.17105E+04 SP= 0.00E+00 SK= 0.00E+00
     2760 T=  1506. E= 0.60088220E+04 F= 0.42983048E+04 EK= 0.17105E+04 SP= 0.00E+00 SK= 0.00E+00
     2770 T=  1508. E= 0.60088170E+04 F= 0.42963221E+04 EK= 0.17125E+04 SP= 0.00E+00 SK= 0.00E+00
     2780 T=  1507. E= 0.60088246E+04 F= 0.42975270E+04 EK= 0.17113E+04 SP= 0.00E+00 SK= 0.00E+00
     2790 T=  1511. E= 0.60088233E+04 F= 0.42923219E+04 EK= 0.17165E+04 SP= 0.00E+00 SK= 0.00E+00
     2800 T=  1518. E= 0.60088141E+04 F= 0.42842458E+04 EK= 0.17246E+04 SP= 0.00E+00 SK= 0.00E+00
     2810 T=  1517. E= 0.60088176E+04 F= 0.42858302E+04 EK= 0.17230E+04 SP= 0.00E+00 SK= 0.00E+00
     2820 T=  1511. E= 0.60088238E+04 F= 0.42931589E+04 EK= 0.17157E+04 SP= 0.00E+00 SK= 0.00E+00
     2830 T=  1508. E= 0.60088221E+04 F= 0.42956481E+04 EK= 0.17132E+04 SP= 0.00E+00 SK= 0.00E+00
     2840 T=  1511. E= 0.60088116E+04 F= 0.42929286E+04 EK= 0.17159E+04 SP= 0.00E+00 SK= 0.00E+00
     2850 T=  1507. E= 0.60088162E+04 F= 0.42972376E+04 EK= 0.17116E+04 SP= 0.00E+00 SK= 0.00E+00
     2860 T=  1502. E= 0.60088260E+04 F= 0.43027787E+04 EK= 0.17060E+04 SP= 0.00E+00 SK= 0.00E+00
     2870 T=  1507. E= 0.60088185E+04 F= 0.42967474E+04 EK= 0.17121E+04 SP= 0.00E+00 SK= 0.00E+00
     2880 T=  1513. E= 0.60088060E+04 F= 0.42897957E+04 EK= 0.17190E+04 SP= 0.00E+00 SK= 0.00E+00
     2890 T=  1508. E= 0.60088214E+04 F= 0.42958819E+04 EK= 0.17129E+04 SP= 0.00E+00 SK= 0.00E+00
     2900 T=  1506. E= 0.60088213E+04 F= 0.42988175E+04 EK= 0.17100E+04 SP= 0.00E+00 SK= 0.00E+00
     2910 T=  1507. E= 0.60088148E+04 F= 0.42968774E+04 EK= 0.17119E+04 SP= 0.00E+00 SK= 0.00E+00
     2920 T=  1506. E= 0.60088210E+04 F= 0.42978093E+04 EK= 0.17110E+04 SP= 0.00E+00 SK= 0.00E+00
     2930 T=  1508. E= 0.60088189E+04 F= 0.42965059E+04 EK= 0.17123E+04 SP= 0.00E+00 SK= 0.00E+00
     2940 T=  1510. E= 0.60088183E+04 F= 0.42939189E+04 EK= 0.17149E+04 SP= 0.00E+00 SK= 0.00E+00
     2950 T=  1514. E= 0.60088248E+04 F= 0.42893107E+04 EK= 0.17195E+04 SP= 0.00E+00 SK= 0.00E+00
     2960 T=  1524. E= 0.60088197E+04 F= 0.42777957E+04 EK= 0.17310E+04 SP= 0.00E+00 SK= 0.00E+00
     2970 T=  1531. E= 0.60088089E+04 F= 0.42696526E+04 EK= 0.17392E+04 SP= 0.00E+00 SK= 0.00E+00
     2980 T=  1521. E= 0.60088188E+04 F= 0.42807461E+04 EK= 0.17281E+04 SP= 0.00E+00 SK= 0.00E+00
     2990 T=  1506. E= 0.60088264E+04 F= 0.42980589E+04 EK= 0.17108E+04 SP= 0.00E+00 SK= 0.00E+00
     3000 T=  1498. E= 0.60088212E+04 F= 0.43070342E+04 EK= 0.17018E+04 SP= 0.00E+00 SK= 0.00E+00
     3010 T=  1493. E= 0.60088189E+04 F= 0.43134482E+04 EK= 0.16954E+04 SP= 0.00E+00 SK= 0.00E+00
     3020 T=  1486. E= 0.60088286E+04 F= 0.43205382E+04 EK= 0.16883E+04 SP= 0.00E+00 SK= 0.00E+00
     3030 T=  1493. E= 0.60088278E+04 F= 0.43133351E+04 EK= 0.16955E+04 SP= 0.00E+00 SK= 0.00E+00
     3040 T=  1508. E= 0.60088060E+04 F= 0.42956044E+04 EK= 0.17132E+04 SP= 0.00E+00 SK= 0.00E+00
     3050 T=  1512. E= 0.60088167E+04 F= 0.42920013E+04 EK= 0.17168E+04 SP= 0.00E+00 SK= 0.00E+00
     3060 T=  1509. E= 0.60088190E+04 F= 0.42944839E+04 EK= 0.17143E+04 SP= 0.00E+00 SK= 0.00E+00
     3070 T=  1510. E= 0.60088264E+04 F= 0.42936652E+04 EK= 0.17152E+04 SP= 0.00E+00 SK= 0.00E+00
     3080 T=  1519. E= 0.60088125E+04 F= 0.42840144E+04 EK= 0.17248E+04 SP= 0.00E+00 SK= 0.00E+00
     3090 T=  1518. E= 0.60088151E+04 F= 0.42845075E+04 EK= 0.17243E+04 SP= 0.00E+00 SK= 0.00E+00
     3100 T=  1513. E= 0.60088323E+04 F= 0.42904218E+04 EK= 0.17184E+04 SP= 0.00E+00 SK= 0.00E+00
     3110 T=  1520. E= 0.60088169E+04 F= 0.42827668E+04 EK= 0.17261E+04 SP= 0.00E+00 SK= 0.00E+00
     3120 T=  1524. E= 0.60088118E+04 F= 0.42773487E+04 EK= 0.17315E+04 SP= 0.00E+00 SK= 0.00E+00
     3130 T=  1520. E= 0.60088123E+04 F= 0.42829055E+04 EK= 0.17259E+04 SP= 0.00E+00 SK= 0.00E+00
     3140 T=  1506. E= 0.60088240E+04 F= 0.42978390E+04 EK= 0.17110E+04 SP= 0.00E+00 SK= 0.00E+00
     3150 T=  1500. E= 0.60088327E+04 F= 0.43047557E+04 EK= 0.17041E+04 SP= 0.00E+00 SK= 0.00E+00
     3160 T=  1512. E= 0.60088164E+04 F= 0.42919872E+04 EK= 0.17168E+04 SP= 0.00E+00 SK= 0.00E+00
     3170 T=  1521. E= 0.60088129E+04 F= 0.42809416E+04 EK= 0.17279E+04 SP= 0.00E+00 SK= 0.00E+00
     3180 T=  1521. E= 0.60088216E+04 F= 0.42815397E+04 EK= 0.17273E+04 SP= 0.00E+00 SK= 0.00E+00
     3190 T=  1517. E= 0.60088151E+04 F= 0.42860609E+04 EK= 0.17228E+04 SP= 0.00E+00 SK= 0.00E+00
     3200 T=  1508. E= 0.60088272E+04 F= 0.42955517E+04 EK= 0.17133E+04 SP= 0.00E+00 SK= 0.00E+00
     3210 T=  1509. E= 0.60088223E+04 F= 0.42951280E+04 EK= 0.17137E+04 SP= 0.00E+00 SK= 0.00E+00
     3220 T=  1515. E= 0.60088196E+04 F= 0.42885632E+04 EK= 0.17203E+04 SP= 0.00E+00 SK= 0.00E+00
     3230 T=  1518. E= 0.60088214E+04 F= 0.42847410E+04 EK= 0.17241E+04 SP= 0.00E+00 SK= 0.00E+00
     3240 T=  1519. E= 0.60088206E+04 F= 0.42835323E+04 EK= 0.17253E+04 SP= 0.00E+00 SK= 0.00E+00
     3250 T=  1515. E= 0.60088157E+04 F= 0.42878005E+04 EK= 0.17210E+04 SP= 0.00E+00 SK= 0.00E+00
     3260 T=  1505. E= 0.60088296E+04 F= 0.42990293E+04 EK= 0.17098E+04 SP= 0.00E+00 SK= 0.00E+00
     3270 T=  1507. E= 0.60088293E+04 F= 0.42976195E+04 EK= 0.17112E+04 SP= 0.00E+00 SK= 0.00E+00
     3280 T=  1518. E= 0.60088126E+04 F= 0.42848212E+04 EK= 0.17240E+04 SP= 0.00E+00 SK= 0.00E+00
     3290 T=  1517. E= 0.60088140E+04 F= 0.42856472E+04 EK= 0.17232E+04 SP= 0.00E+00 SK= 0.00E+00
     3300 T=  1506. E= 0.60088275E+04 F= 0.42987795E+04 EK= 0.17100E+04 SP= 0.00E+00 SK= 0.00E+00
     3310 T=  1503. E= 0.60088316E+04 F= 0.43020072E+04 EK= 0.17068E+04 SP= 0.00E+00 SK= 0.00E+00
     3320 T=  1514. E= 0.60088218E+04 F= 0.42897288E+04 EK= 0.17191E+04 SP= 0.00E+00 SK= 0.00E+00
     3330 T=  1526. E= 0.60088120E+04 F= 0.42755621E+04 EK= 0.17332E+04 SP= 0.00E+00 SK= 0.00E+00
     3340 T=  1527. E= 0.60088135E+04 F= 0.42744887E+04 EK= 0.17343E+04 SP= 0.00E+00 SK= 0.00E+00
     3350 T=  1516. E= 0.60088199E+04 F= 0.42872372E+04 EK= 0.17216E+04 SP= 0.00E+00 SK= 0.00E+00
     3360 T=  1503. E= 0.60088298E+04 F= 0.43015161E+04 EK= 0.17073E+04 SP= 0.00E+00 SK= 0.00E+00
     3370 T=  1501. E= 0.60088289E+04 F= 0.43042803E+04 EK= 0.17045E+04 SP= 0.00E+00 SK= 0.00E+00
     3380 T=  1507. E= 0.60088221E+04 F= 0.42967201E+04 EK= 0.17121E+04 SP= 0.00E+00 SK= 0.00E+00
     3390 T=  1514. E= 0.60088182E+04 F= 0.42889130E+04 EK= 0.17199E+04 SP= 0.00E+00 SK= 0.00E+00
     3400 T=  1515. E= 0.60088223E+04 F= 0.42885420E+04 EK= 0.17203E+04 SP= 0.00E+00 SK= 0.00E+00
     3410 T=  1512. E= 0.60088177E+04 F= 0.42910222E+04 EK= 0.17178E+04 SP= 0.00E+00 SK= 0.00E+00
     3420 T=  1503. E= 0.60088150E+04 F= 0.43011970E+04 EK= 0.17076E+04 SP= 0.00E+00 SK= 0.00E+00
     3430 T=  1491. E= 0.60088334E+04 F= 0.43152253E+04 EK= 0.16936E+04 SP= 0.00E+00 SK= 0.00E+00
     3440 T=  1496. E= 0.60088202E+04 F= 0.43098958E+04 EK= 0.16989E+04 SP= 0.00E+00 SK= 0.00E+00
     3450 T=  1503. E= 0.60088162E+04 F= 0.43015988E+04 EK= 0.17072E+04 SP= 0.00E+00 SK= 0.00E+00
     3460 T=  1503. E= 0.60088204E+04 F= 0.43012408E+04 EK= 0.17076E+04 SP= 0.00E+00 SK= 0.00E+00
     3470 T=  1501. E= 0.60088191E+04 F= 0.43040049E+04 EK= 0.17048E+04 SP= 0.00E+00 SK= 0.00E+00
     3480 T=  1498. E= 0.60088260E+04 F= 0.43072827E+04 EK= 0.17015E+04 SP= 0.00E+00 SK= 0.00E+00
     3490 T=  1503. E= 0.60088164E+04 F= 0.43015452E+04 EK= 0.17073E+04 SP= 0.00E+00 SK= 0.00E+00
     3500 T=  1509. E= 0.60088207E+04 F= 0.42953622E+04 EK= 0.17135E+04 SP= 0.00E+00 SK= 0.00E+00
     3510 T=  1514. E= 0.60088183E+04 F= 0.42889509E+04 EK= 0.17199E+04 SP= 0.00E+00 SK= 0.00E+00
     3520 T=  1517. E= 0.60088181E+04 F= 0.42859194E+04 EK= 0.17229E+04 SP= 0.00E+00 SK= 0.00E+00
     3530 T=  1515. E= 0.60088268E+04 F= 0.42883974E+04 EK= 0.17204E+04 SP= 0.00E+00 SK= 0.00E+00
     3540 T=  1516. E= 0.60088234E+04 F= 0.42868325E+04 EK= 0.17220E+04 SP= 0.00E+00 SK= 0.00E+00
     3550 T=  1519. E= 0.60088217E+04 F= 0.42837306E+04 EK= 0.17251E+04 SP= 0.00E+00 SK= 0.00E+00
     3560 T=  1520. E= 0.60088231E+04 F= 0.42818210E+04 EK= 0.17270E+04 SP= 0.00E+00 SK= 0.00E+00
     3570 T=  1522. E= 0.60088147E+04 F= 0.42801552E+04 EK= 0.17287E+04 SP= 0.00E+00 SK= 0.00E+00
     3580 T=  1516. E= 0.60088146E+04 F= 0.42870844E+04 EK= 0.17217E+04 SP= 0.00E+00 SK= 0.00E+00
     3590 T=  1505. E= 0.60088297E+04 F= 0.42998111E+04 EK= 0.17090E+04 SP= 0.00E+00 SK= 0.00E+00
     3600 T=  1505. E= 0.60088226E+04 F= 0.42996097E+04 EK= 0.17092E+04 SP= 0.00E+00 SK= 0.00E+00
     3610 T=  1510. E= 0.60088131E+04 F= 0.42940395E+04 EK= 0.17148E+04 SP= 0.00E+00 SK= 0.00E+00
     3620 T=  1510. E= 0.60088186E+04 F= 0.42942981E+04 EK= 0.17145E+04 SP= 0.00E+00 SK= 0.00E+00
     3630 T=  1511. E= 0.60088265E+04 F= 0.42924377E+04 EK= 0.17164E+04 SP= 0.00E+00 SK= 0.00E+00
     3640 T=  1519. E= 0.60088111E+04 F= 0.42830790E+04 EK= 0.17257E+04 SP= 0.00E+00 SK= 0.00E+00
     3650 T=  1519. E= 0.60088210E+04 F= 0.42830305E+04 EK= 0.17258E+04 SP= 0.00E+00 SK= 0.00E+00
     3660 T=  1518. E= 0.60088197E+04 F= 0.42844690E+04 EK= 0.17244E+04 SP= 0.00E+00 SK= 0.00E+00
     3670 T=  1517. E= 0.60088158E+04 F= 0.42852729E+04 EK= 0.17235E+04 SP= 0.00E+00 SK= 0.00E+00
     3680 T=  1515. E= 0.60088191E+04 F= 0.42879879E+04 EK= 0.17208E+04 SP= 0.00E+00 SK= 0.00E+00
     3690 T=  1512. E= 0.60088090E+04 F= 0.42911264E+04 EK= 0.17177E+04 SP= 0.00E+00 SK= 0.00E+00
     3700 T=  1500. E= 0.60088236E+04 F= 0.43048430E+04 EK= 0.17040E+04 SP= 0.00E+00 SK= 0.00E+00
     3710 T=  1495. E= 0.60088291E+04 F= 0.43109974E+04 EK= 0.16978E+04 SP= 0.00E+00 SK= 0.00E+00
     3720 T=  1502. E= 0.60088153E+04 F= 0.43026713E+04 EK= 0.17061E+04 SP= 0.00E+00 SK= 0.00E+00
     3730 T=  1506. E= 0.60088213E+04 F= 0.42978486E+04 EK= 0.17110E+04 SP= 0.00E+00 SK= 0.00E+00
     3740 T=  1508. E= 0.60088143E+04 F= 0.42954552E+04 EK= 0.17134E+04 SP= 0.00E+00 SK= 0.00E+00
     3750 T=  1503. E= 0.60088252E+04 F= 0.43021562E+04 EK= 0.17067E+04 SP= 0.00E+00 SK= 0.00E+00
     3760 T=  1499. E= 0.60088306E+04 F= 0.43063237E+04 EK= 0.17025E+04 SP= 0.00E+00 SK= 0.00E+00
     3770 T=  1507. E= 0.60088246E+04 F= 0.42973240E+04 EK= 0.17115E+04 SP= 0.00E+00 SK= 0.00E+00
     3780 T=  1519. E= 0.60088203E+04 F= 0.42837954E+04 EK= 0.17250E+04 SP= 0.00E+00 SK= 0.00E+00
     3790 T=  1524. E= 0.60088116E+04 F= 0.42776246E+04 EK= 0.17312E+04 SP= 0.00E+00 SK= 0.00E+00
     3800 T=  1517. E= 0.60088240E+04 F= 0.42861043E+04 EK= 0.17227E+04 SP= 0.00E+00 SK= 0.00E+00
     3810 T=  1510. E= 0.60088259E+04 F= 0.42934152E+04 EK= 0.17154E+04 SP= 0.00E+00 SK= 0.00E+00
     3820 T=  1511. E= 0.60088249E+04 F= 0.42926102E+04 EK= 0.17162E+04 SP= 0.00E+00 SK= 0.00E+00
     3830 T=  1517. E= 0.60088159E+04 F= 0.42859414E+04 EK= 0.17229E+04 SP= 0.00E+00 SK= 0.00E+00
     3840 T=  1519. E= 0.60088218E+04 F= 0.42833730E+04 EK= 0.17254E+04 SP= 0.00E+00 SK= 0.00E+00
     3850 T=  1523. E= 0.60088266E+04 F= 0.42789980E+04 EK= 0.17298E+04 SP= 0.00E+00 SK= 0.00E+00
     3860 T=  1532. E= 0.60088155E+04 F= 0.42689707E+04 EK= 0.17398E+04 SP= 0.00E+00 SK= 0.00E+00
     3870 T=  1533. E= 0.60088107E+04 F= 0.42677435E+04 EK= 0.17411E+04 SP= 0.00E+00 SK= 0.00E+00
     3880 T=  1523. E= 0.60088339E+04 F= 0.42785693E+04 EK= 0.17303E+04 SP= 0.00E+00 SK= 0.00E+00
     3890 T=  1524. E= 0.60088295E+04 F= 0.42772870E+04 EK= 0.17315E+04 SP= 0.00E+00 SK= 0.00E+00
     3900 T=  1532. E= 0.60088182E+04 F= 0.42686740E+04 EK= 0.17401E+04 SP= 0.00E+00 SK= 0.00E+00
     3910 T=  1529. E= 0.60088164E+04 F= 0.42719317E+04 EK= 0.17369E+04 SP= 0.00E+00 SK= 0.00E+00
     3920 T=  1515. E= 0.60088259E+04 F= 0.42878058E+04 EK= 0.17210E+04 SP= 0.00E+00 SK= 0.00E+00
     3930 T=  1507. E= 0.60088324E+04 F= 0.42975020E+04 EK= 0.17113E+04 SP= 0.00E+00 SK= 0.00E+00
     3940 T=  1512. E= 0.60088135E+04 F= 0.42915661E+04 EK= 0.17172E+04 SP= 0.00E+00 SK= 0.00E+00
     3950 T=  1513. E= 0.60088189E+04 F= 0.42906843E+04 EK= 0.17181E+04 SP= 0.00E+00 SK= 0.00E+00
     3960 T=  1514. E= 0.60088278E+04 F= 0.42896898E+04 EK= 0.17191E+04 SP= 0.00E+00 SK= 0.00E+00
     3970 T=  1520. E= 0.60088106E+04 F= 0.42824127E+04 EK= 0.17264E+04 SP= 0.00E+00 SK= 0.00E+00
     3980 T=  1515. E= 0.60088204E+04 F= 0.42880331E+04 EK= 0.17208E+04 SP= 0.00E+00 SK= 0.00E+00
     3990 T=  1508. E= 0.60088261E+04 F= 0.42961948E+04 EK= 0.17126E+04 SP= 0.00E+00 SK= 0.00E+00
     4000 T=  1507. E= 0.60088177E+04 F= 0.42975785E+04 EK= 0.17112E+04 SP= 0.00E+00 SK= 0.00E+00
     4010 T=  1504. E= 0.60088199E+04 F= 0.43007555E+04 EK= 0.17081E+04 SP= 0.00E+00 SK= 0.00E+00
     4020 T=  1502. E= 0.60088259E+04 F= 0.43027989E+04 EK= 0.17060E+04 SP= 0.00E+00 SK= 0.00E+00
     4030 T=  1507. E= 0.60088211E+04 F= 0.42975180E+04 EK= 0.17113E+04 SP= 0.00E+00 SK= 0.00E+00
     4040 T=  1514. E= 0.60088208E+04 F= 0.42896484E+04 EK= 0.17192E+04 SP= 0.00E+00 SK= 0.00E+00
     4050 T=  1517. E= 0.60087978E+04 F= 0.42860722E+04 EK= 0.17227E+04 SP= 0.00E+00 SK= 0.00E+00
     4060 T=  1497. E= 0.60088231E+04 F= 0.43087807E+04 EK= 0.17000E+04 SP= 0.00E+00 SK= 0.00E+00
     4070 T=  1479. E= 0.60088339E+04 F= 0.43287134E+04 EK= 0.16801E+04 SP= 0.00E+00 SK= 0.00E+00
     4080 T=  1483. E= 0.60088270E+04 F= 0.43246060E+04 EK= 0.16842E+04 SP= 0.00E+00 SK= 0.00E+00
     4090 T=  1496. E= 0.60088107E+04 F= 0.43097590E+04 EK= 0.16991E+04 SP= 0.00E+00 SK= 0.00E+00
     4100 T=  1498. E= 0.60088154E+04 F= 0.43075415E+04 EK= 0.17013E+04 SP= 0.00E+00 SK= 0.00E+00
     4110 T=  1495. E= 0.60088247E+04 F= 0.43108818E+04 EK= 0.16979E+04 SP= 0.00E+00 SK= 0.00E+00
     4120 T=  1498. E= 0.60088174E+04 F= 0.43070867E+04 EK= 0.17017E+04 SP= 0.00E+00 SK= 0.00E+00
     4130 T=  1502. E= 0.60088102E+04 F= 0.43033377E+04 EK= 0.17055E+04 SP= 0.00E+00 SK= 0.00E+00
     4140 T=  1499. E= 0.60088237E+04 F= 0.43062248E+04 EK= 0.17026E+04 SP= 0.00E+00 SK= 0.00E+00
     4150 T=  1506. E= 0.60088204E+04 F= 0.42979209E+04 EK= 0.17109E+04 SP= 0.00E+00 SK= 0.00E+00
     4160 T=  1520. E= 0.60088094E+04 F= 0.42818950E+04 EK= 0.17269E+04 SP= 0.00E+00 SK= 0.00E+00
     4170 T=  1523. E= 0.60088087E+04 F= 0.42784760E+04 EK= 0.17303E+04 SP= 0.00E+00 SK= 0.00E+00
     4180 T=  1513. E= 0.60088192E+04 F= 0.42902575E+04 EK= 0.17186E+04 SP= 0.00E+00 SK= 0.00E+00
     4190 T=  1502. E= 0.60088321E+04 F= 0.43030628E+04 EK= 0.17058E+04 SP= 0.00E+00 SK= 0.00E+00
     4200 T=  1504. E= 0.60088207E+04 F= 0.43007195E+04 EK= 0.17081E+04 SP= 0.00E+00 SK= 0.00E+00
     4210 T=  1508. E= 0.60088129E+04 F= 0.42958020E+04 EK= 0.17130E+04 SP= 0.00E+00 SK= 0.00E+00
     4220 T=  1504. E= 0.60088153E+04 F= 0.43002773E+04 EK= 0.17085E+04 SP= 0.00E+00 SK= 0.00E+00
     4230 T=  1497. E= 0.60088266E+04 F= 0.43081398E+04 EK= 0.17007E+04 SP= 0.00E+00 SK= 0.00E+00
     4240 T=  1498. E= 0.60088180E+04 F= 0.43073588E+04 EK= 0.17015E+04 SP= 0.00E+00 SK= 0.00E+00
     4250 T=  1500. E= 0.60088149E+04 F= 0.43056442E+04 EK= 0.17032E+04 SP= 0.00E+00 SK= 0.00E+00
     4260 T=  1500. E= 0.60088249E+04 F= 0.43052901E+04 EK= 0.17035E+04 SP= 0.00E+00 SK= 0.00E+00
     4270 T=  1509. E= 0.60088154E+04 F= 0.42950503E+04 EK= 0.17138E+04 SP= 0.00E+00 SK= 0.00E+00
     4280 T=  1519. E= 0.60088063E+04 F= 0.42839749E+04 EK= 0.17248E+04 SP= 0.00E+00 SK= 0.00E+00
     4290 T=  1516. E= 0.60088099E+04 F= 0.42868272E+04 EK= 0.17220E+04 SP= 0.00E+00 SK= 0.00E+00
     4300 T=  1506. E= 0.60088255E+04 F= 0.42980611E+04 EK= 0.17108E+04 SP= 0.00E+00 SK= 0.00E+00
     4310 T=  1504. E= 0.60088129E+04 F= 0.43007180E+04 EK= 0.17081E+04 SP= 0.00E+00 SK= 0.00E+00
     4320 T=  1500. E= 0.60088143E+04 F= 0.43046973E+04 EK= 0.17041E+04 SP= 0.00E+00 SK= 0.00E+00
     4330 T=  1496. E= 0.60088225E+04 F= 0.43092693E+04 EK= 0.16996E+04 SP= 0.00E+00 SK= 0.00E+00
     4340 T=  1501. E= 0.60088208E+04 F= 0.43042770E+04 EK= 0.17045E+04 SP= 0.00E+00 SK= 0.00E+00
     4350 T=  1512. E= 0.60088129E+04 F= 0.42918508E+04 EK= 0.17170E+04 SP= 0.00E+00 SK= 0.00E+00
     4360 T=  1517. E= 0.60088085E+04 F= 0.42859775E+04 EK= 0.17228E+04 SP= 0.00E+00 SK= 0.00E+00
     4370 T=  1513. E= 0.60088207E+04 F= 0.42908646E+04 EK= 0.17180E+04 SP= 0.00E+00 SK= 0.00E+00
     4380 T=  1511. E= 0.60088173E+04 F= 0.42924209E+04 EK= 0.17164E+04 SP= 0.00E+00 SK= 0.00E+00
     4390 T=  1510. E= 0.60088118E+04 F= 0.42936814E+04 EK= 0.17151E+04 SP= 0.00E+00 SK= 0.00E+00
     4400 T=  1504. E= 0.60088242E+04 F= 0.43004909E+04 EK= 0.17083E+04 SP= 0.00E+00 SK= 0.00E+00
     4410 T=  1505. E= 0.60088180E+04 F= 0.42990045E+04 EK= 0.17098E+04 SP= 0.00E+00 SK= 0.00E+00
     4420 T=  1509. E= 0.60088098E+04 F= 0.42953809E+04 EK= 0.17134E+04 SP= 0.00E+00 SK= 0.00E+00
     4430 T=  1504. E= 0.60088174E+04 F= 0.43011051E+04 EK= 0.17077E+04 SP= 0.00E+00 SK= 0.00E+00
     4440 T=  1499. E= 0.60088286E+04 F= 0.43059495E+04 EK= 0.17029E+04 SP= 0.00E+00 SK= 0.00E+00
     4450 T=  1504. E= 0.60088139E+04 F= 0.43004134E+04 EK= 0.17084E+04 SP= 0.00E+00 SK= 0.00E+00
     4460 T=  1504. E= 0.60088208E+04 F= 0.43002139E+04 EK= 0.17086E+04 SP= 0.00E+00 SK= 0.00E+00
     4470 T=  1505. E= 0.60088222E+04 F= 0.42996917E+04 EK= 0.17091E+04 SP= 0.00E+00 SK= 0.00E+00
     4480 T=  1510. E= 0.60088173E+04 F= 0.42936363E+04 EK= 0.17152E+04 SP= 0.00E+00 SK= 0.00E+00
     4490 T=  1516. E= 0.60088176E+04 F= 0.42868079E+04 EK= 0.17220E+04 SP= 0.00E+00 SK= 0.00E+00
     4500 T=  1518. E= 0.60088077E+04 F= 0.42841368E+04 EK= 0.17247E+04 SP= 0.00E+00 SK= 0.00E+00
     4510 T=  1510. E= 0.60088271E+04 F= 0.42933295E+04 EK= 0.17155E+04 SP= 0.00E+00 SK= 0.00E+00
     4520 T=  1511. E= 0.60088169E+04 F= 0.42926447E+04 EK= 0.17162E+04 SP= 0.00E+00 SK= 0.00E+00
     4530 T=  1512. E= 0.60088134E+04 F= 0.42916197E+04 EK= 0.17172E+04 SP= 0.00E+00 SK= 0.00E+00
     4540 T=  1507. E= 0.60088303E+04 F= 0.42971179E+04 EK= 0.17117E+04 SP= 0.00E+00 SK= 0.00E+00
     4550 T=  1511. E= 0.60088225E+04 F= 0.42928974E+04 EK= 0.17159E+04 SP= 0.00E+00 SK= 0.00E+00
     4560 T=  1517. E= 0.60088222E+04 F= 0.42857022E+04 EK= 0.17231E+04 SP= 0.00E+00 SK= 0.00E+00
     4570 T=  1521. E= 0.60088185E+04 F= 0.42806890E+04 EK= 0.17281E+04 SP= 0.00E+00 SK= 0.00E+00
     4580 T=  1519. E= 0.60088173E+04 F= 0.42838794E+04 EK= 0.17249E+04 SP= 0.00E+00 SK= 0.00E+00
     4590 T=  1509. E= 0.60088267E+04 F= 0.42943544E+04 EK= 0.17145E+04 SP= 0.00E+00 SK= 0.00E+00
     4600 T=  1505. E= 0.60088249E+04 F= 0.42991606E+04 EK= 0.17097E+04 SP= 0.00E+00 SK= 0.00E+00
     4610 T=  1507. E= 0.60088207E+04 F= 0.42975275E+04 EK= 0.17113E+04 SP= 0.00E+00 SK= 0.00E+00
     4620 T=  1508. E= 0.60088179E+04 F= 0.42960263E+04 EK= 0.17128E+04 SP= 0.00E+00 SK= 0.00E+00
     4630 T=  1505. E= 0.60088265E+04 F= 0.42993943E+04 EK= 0.17094E+04 SP= 0.00E+00 SK= 0.00E+00
     4640 T=  1508. E= 0.60088348E+04 F= 0.42962497E+04 EK= 0.17126E+04 SP= 0.00E+00 SK= 0.00E+00
     4650 T=  1524. E= 0.60088162E+04 F= 0.42781845E+04 EK= 0.17306E+04 SP= 0.00E+00 SK= 0.00E+00
     4660 T=  1531. E= 0.60088074E+04 F= 0.42701978E+04 EK= 0.17386E+04 SP= 0.00E+00 SK= 0.00E+00
     4670 T=  1520. E= 0.60088249E+04 F= 0.42824302E+04 EK= 0.17264E+04 SP= 0.00E+00 SK= 0.00E+00
     4680 T=  1512. E= 0.60088228E+04 F= 0.42917328E+04 EK= 0.17171E+04 SP= 0.00E+00 SK= 0.00E+00
     4690 T=  1510. E= 0.60088197E+04 F= 0.42940228E+04 EK= 0.17148E+04 SP= 0.00E+00 SK= 0.00E+00
     4700 T=  1510. E= 0.60088221E+04 F= 0.42941801E+04 EK= 0.17146E+04 SP= 0.00E+00 SK= 0.00E+00
     4710 T=  1513. E= 0.60088266E+04 F= 0.42908848E+04 EK= 0.17179E+04 SP= 0.00E+00 SK= 0.00E+00
     4720 T=  1520. E= 0.60088149E+04 F= 0.42825737E+04 EK= 0.17262E+04 SP= 0.00E+00 SK= 0.00E+00
     4730 T=  1521. E= 0.60088202E+04 F= 0.42806809E+04 EK= 0.17281E+04 SP= 0.00E+00 SK= 0.00E+00
     4740 T=  1518. E= 0.60088150E+04 F= 0.42849128E+04 EK= 0.17239E+04 SP= 0.00E+00 SK= 0.00E+00
     4750 T=  1506. E= 0.60088265E+04 F= 0.42986295E+04 EK= 0.17102E+04 SP= 0.00E+00 SK= 0.00E+00
     4760 T=  1501. E= 0.60088292E+04 F= 0.43038188E+04 EK= 0.17050E+04 SP= 0.00E+00 SK= 0.00E+00
     4770 T=  1508. E= 0.60088195E+04 F= 0.42963245E+04 EK= 0.17125E+04 SP= 0.00E+00 SK= 0.00E+00
     4780 T=  1513. E= 0.60088146E+04 F= 0.42904182E+04 EK= 0.17184E+04 SP= 0.00E+00 SK= 0.00E+00
     4790 T=  1511. E= 0.60088249E+04 F= 0.42927699E+04 EK= 0.17161E+04 SP= 0.00E+00 SK= 0.00E+00
     4800 T=  1513. E= 0.60088257E+04 F= 0.42905430E+04 EK= 0.17183E+04 SP= 0.00E+00 SK= 0.00E+00
     4810 T=  1521. E= 0.60088180E+04 F= 0.42810930E+04 EK= 0.17277E+04 SP= 0.00E+00 SK= 0.00E+00
     4820 T=  1526. E= 0.60088198E+04 F= 0.42759530E+04 EK= 0.17329E+04 SP= 0.00E+00 SK= 0.00E+00
     4830 T=  1526. E= 0.60088192E+04 F= 0.42753301E+04 EK= 0.17335E+04 SP= 0.00E+00 SK= 0.00E+00
     4840 T=  1523. E= 0.60088252E+04 F= 0.42788119E+04 EK= 0.17300E+04 SP= 0.00E+00 SK= 0.00E+00
     4850 T=  1524. E= 0.60088281E+04 F= 0.42779682E+04 EK= 0.17309E+04 SP= 0.00E+00 SK= 0.00E+00
     4860 T=  1529. E= 0.60088098E+04 F= 0.42724145E+04 EK= 0.17364E+04 SP= 0.00E+00 SK= 0.00E+00
     4870 T=  1519. E= 0.60088160E+04 F= 0.42833786E+04 EK= 0.17254E+04 SP= 0.00E+00 SK= 0.00E+00
     4880 T=  1502. E= 0.60088315E+04 F= 0.43022776E+04 EK= 0.17066E+04 SP= 0.00E+00 SK= 0.00E+00
     4890 T=  1497. E= 0.60088302E+04 F= 0.43085517E+04 EK= 0.17003E+04 SP= 0.00E+00 SK= 0.00E+00
     4900 T=  1503. E= 0.60088206E+04 F= 0.43017859E+04 EK= 0.17070E+04 SP= 0.00E+00 SK= 0.00E+00
     4910 T=  1508. E= 0.60088170E+04 F= 0.42959063E+04 EK= 0.17129E+04 SP= 0.00E+00 SK= 0.00E+00
     4920 T=  1508. E= 0.60088215E+04 F= 0.42962919E+04 EK= 0.17125E+04 SP= 0.00E+00 SK= 0.00E+00
     4930 T=  1507. E= 0.60088185E+04 F= 0.42973200E+04 EK= 0.17115E+04 SP= 0.00E+00 SK= 0.00E+00
     4940 T=  1504. E= 0.60088300E+04 F= 0.43010102E+04 EK= 0.17078E+04 SP= 0.00E+00 SK= 0.00E+00
     4950 T=  1510. E= 0.60088224E+04 F= 0.42941466E+04 EK= 0.17147E+04 SP= 0.00E+00 SK= 0.00E+00
     4960 T=  1515. E= 0.60088054E+04 F= 0.42876320E+04 EK= 0.17212E+04 SP= 0.00E+00 SK= 0.00E+00
     4970 T=  1506. E= 0.60088269E+04 F= 0.42983773E+04 EK= 0.17104E+04 SP= 0.00E+00 SK= 0.00E+00
     4980 T=  1505. E= 0.60088308E+04 F= 0.42994966E+04 EK= 0.17093E+04 SP= 0.00E+00 SK= 0.00E+00
     4990 T=  1516. E= 0.60088067E+04 F= 0.42865942E+04 EK= 0.17222E+04 SP= 0.00E+00 SK= 0.00E+00
     5000 T=  1514. E= 0.60088150E+04 F= 0.42897067E+04 EK= 0.17191E+04 SP= 0.00E+00 SK= 0.00E+00
     5010 T=  1507. E= 0.60088359E+04 F= 0.42972128E+04 EK= 0.17116E+04 SP= 0.00E+00 SK= 0.00E+00
     5020 T=  1519. E= 0.60088153E+04 F= 0.42834941E+04 EK= 0.17253E+04 SP= 0.00E+00 SK= 0.00E+00
     5030 T=  1526. E= 0.60088003E+04 F= 0.42754048E+04 EK= 0.17334E+04 SP= 0.00E+00 SK= 0.00E+00
     5040 T=  1513. E= 0.60088281E+04 F= 0.42905205E+04 EK= 0.17183E+04 SP= 0.00E+00 SK= 0.00E+00
     5050 T=  1506. E= 0.60088253E+04 F= 0.42987849E+04 EK= 0.17100E+04 SP= 0.00E+00 SK= 0.00E+00
     5060 T=  1507. E= 0.60088190E+04 F= 0.42972145E+04 EK= 0.17116E+04 SP= 0.00E+00 SK= 0.00E+00
     5070 T=  1509. E= 0.60088262E+04 F= 0.42946669E+04 EK= 0.17142E+04 SP= 0.00E+00 SK= 0.00E+00
     5080 T=  1518. E= 0.60088209E+04 F= 0.42841545E+04 EK= 0.17247E+04 SP= 0.00E+00 SK= 0.00E+00
     5090 T=  1525. E= 0.60088041E+04 F= 0.42764000E+04 EK= 0.17324E+04 SP= 0.00E+00 SK= 0.00E+00
     5100 T=  1513. E= 0.60088235E+04 F= 0.42908142E+04 EK= 0.17180E+04 SP= 0.00E+00 SK= 0.00E+00
     5110 T=  1501. E= 0.60088283E+04 F= 0.43042936E+04 EK= 0.17045E+04 SP= 0.00E+00 SK= 0.00E+00
     5120 T=  1500. E= 0.60088288E+04 F= 0.43050999E+04 EK= 0.17037E+04 SP= 0.00E+00 SK= 0.00E+00
     5130 T=  1510. E= 0.60088261E+04 F= 0.42939029E+04 EK= 0.17149E+04 SP= 0.00E+00 SK= 0.00E+00
     5140 T=  1521. E= 0.60088148E+04 F= 0.42808127E+04 EK= 0.17280E+04 SP= 0.00E+00 SK= 0.00E+00
     5150 T=  1523. E= 0.60088154E+04 F= 0.42786329E+04 EK= 0.17302E+04 SP= 0.00E+00 SK= 0.00E+00
     5160 T=  1515. E= 0.60088183E+04 F= 0.42879000E+04 EK= 0.17209E+04 SP= 0.00E+00 SK= 0.00E+00
     5170 T=  1503. E= 0.60088302E+04 F= 0.43019232E+04 EK= 0.17069E+04 SP= 0.00E+00 SK= 0.00E+00
     5180 T=  1502. E= 0.60088228E+04 F= 0.43029497E+04 EK= 0.17059E+04 SP= 0.00E+00 SK= 0.00E+00
     5190 T=  1505. E= 0.60088174E+04 F= 0.42992320E+04 EK= 0.17096E+04 SP= 0.00E+00 SK= 0.00E+00
     5200 T=  1505. E= 0.60088240E+04 F= 0.42997346E+04 EK= 0.17091E+04 SP= 0.00E+00 SK= 0.00E+00
     5210 T=  1508. E= 0.60088309E+04 F= 0.42963076E+04 EK= 0.17125E+04 SP= 0.00E+00 SK= 0.00E+00
     5220 T=  1522. E= 0.60088214E+04 F= 0.42799154E+04 EK= 0.17289E+04 SP= 0.00E+00 SK= 0.00E+00
     5230 T=  1535. E= 0.60088134E+04 F= 0.42648540E+04 EK= 0.17440E+04 SP= 0.00E+00 SK= 0.00E+00
     5240 T=  1535. E= 0.60088192E+04 F= 0.42648617E+04 EK= 0.17440E+04 SP= 0.00E+00 SK= 0.00E+00
     5250 T=  1525. E= 0.60088139E+04 F= 0.42769485E+04 EK= 0.17319E+04 SP= 0.00E+00 SK= 0.00E+00
     5260 T=  1501. E= 0.60088256E+04 F= 0.43035036E+04 EK= 0.17053E+04 SP= 0.00E+00 SK= 0.00E+00
     5270 T=  1484. E= 0.60088418E+04 F= 0.43235255E+04 EK= 0.16853E+04 SP= 0.00E+00 SK= 0.00E+00
     5280 T=  1494. E= 0.60088268E+04 F= 0.43118742E+04 EK= 0.16970E+04 SP= 0.00E+00 SK= 0.00E+00
     5290 T=  1515. E= 0.60088106E+04 F= 0.42878408E+04 EK= 0.17210E+04 SP= 0.00E+00 SK= 0.00E+00
     5300 T=  1522. E= 0.60088130E+04 F= 0.42802263E+04 EK= 0.17286E+04 SP= 0.00E+00 SK= 0.00E+00
     5310 T=  1517. E= 0.60088308E+04 F= 0.42862804E+04 EK= 0.17226E+04 SP= 0.00E+00 SK= 0.00E+00
     5320 T=  1516. E= 0.60088229E+04 F= 0.42868185E+04 EK= 0.17220E+04 SP= 0.00E+00 SK= 0.00E+00
     5330 T=  1515. E= 0.60088255E+04 F= 0.42880505E+04 EK= 0.17208E+04 SP= 0.00E+00 SK= 0.00E+00
     5340 T=  1513. E= 0.60088213E+04 F= 0.42905203E+04 EK= 0.17183E+04 SP= 0.00E+00 SK= 0.00E+00
     5350 T=  1508. E= 0.60088264E+04 F= 0.42958751E+04 EK= 0.17130E+04 SP= 0.00E+00 SK= 0.00E+00
     5360 T=  1508. E= 0.60088274E+04 F= 0.42962679E+04 EK= 0.17126E+04 SP= 0.00E+00 SK= 0.00E+00
     5370 T=  1513. E= 0.60088150E+04 F= 0.42905497E+04 EK= 0.17183E+04 SP= 0.00E+00 SK= 0.00E+00
     5380 T=  1510. E= 0.60088177E+04 F= 0.42938698E+04 EK= 0.17149E+04 SP= 0.00E+00 SK= 0.00E+00
     5390 T=  1501. E= 0.60088269E+04 F= 0.43040875E+04 EK= 0.17047E+04 SP= 0.00E+00 SK= 0.00E+00
     5400 T=  1499. E= 0.60088261E+04 F= 0.43065773E+04 EK= 0.17022E+04 SP= 0.00E+00 SK= 0.00E+00
     5410 T=  1502. E= 0.60088176E+04 F= 0.43027755E+04 EK= 0.17060E+04 SP= 0.00E+00 SK= 0.00E+00
     5420 T=  1501. E= 0.60088185E+04 F= 0.43042982E+04 EK= 0.17045E+04 SP= 0.00E+00 SK= 0.00E+00
     5430 T=  1496. E= 0.60088293E+04 F= 0.43094986E+04 EK= 0.16993E+04 SP= 0.00E+00 SK= 0.00E+00
     5440 T=  1501. E= 0.60088265E+04 F= 0.43041338E+04 EK= 0.17047E+04 SP= 0.00E+00 SK= 0.00E+00
     5450 T=  1512. E= 0.60088129E+04 F= 0.42919163E+04 EK= 0.17169E+04 SP= 0.00E+00 SK= 0.00E+00
     5460 T=  1512. E= 0.60088179E+04 F= 0.42912390E+04 EK= 0.17176E+04 SP= 0.00E+00 SK= 0.00E+00
     5470 T=  1506. E= 0.60088230E+04 F= 0.42977382E+04 EK= 0.17111E+04 SP= 0.00E+00 SK= 0.00E+00
     5480 T=  1504. E= 0.60088259E+04 F= 0.43010371E+04 EK= 0.17078E+04 SP= 0.00E+00 SK= 0.00E+00
     5490 T=  1508. E= 0.60088226E+04 F= 0.42959612E+04 EK= 0.17129E+04 SP= 0.00E+00 SK= 0.00E+00
     5500 T=  1516. E= 0.60088212E+04 F= 0.42867488E+04 EK= 0.17221E+04 SP= 0.00E+00 SK= 0.00E+00
     5510 T=  1522. E= 0.60088101E+04 F= 0.42799514E+04 EK= 0.17289E+04 SP= 0.00E+00 SK= 0.00E+00
     5520 T=  1517. E= 0.60088241E+04 F= 0.42863294E+04 EK= 0.17225E+04 SP= 0.00E+00 SK= 0.00E+00
     5530 T=  1513. E= 0.60088308E+04 F= 0.42898339E+04 EK= 0.17190E+04 SP= 0.00E+00 SK= 0.00E+00
     5540 T=  1519. E= 0.60088182E+04 F= 0.42831728E+04 EK= 0.17256E+04 SP= 0.00E+00 SK= 0.00E+00
     5550 T=  1518. E= 0.60088132E+04 F= 0.42846249E+04 EK= 0.17242E+04 SP= 0.00E+00 SK= 0.00E+00
     5560 T=  1506. E= 0.60088328E+04 F= 0.42984440E+04 EK= 0.17104E+04 SP= 0.00E+00 SK= 0.00E+00
     5570 T=  1506. E= 0.60088352E+04 F= 0.42982200E+04 EK= 0.17106E+04 SP= 0.00E+00 SK= 0.00E+00
     5580 T=  1523. E= 0.60088183E+04 F= 0.42792323E+04 EK= 0.17296E+04 SP= 0.00E+00 SK= 0.00E+00
     5590 T=  1533. E= 0.60088090E+04 F= 0.42680532E+04 EK= 0.17408E+04 SP= 0.00E+00 SK= 0.00E+00
     5600 T=  1522. E= 0.60088185E+04 F= 0.42798115E+04 EK= 0.17290E+04 SP= 0.00E+00 SK= 0.00E+00
     5610 T=  1504. E= 0.60088328E+04 F= 0.43000028E+04 EK= 0.17088E+04 SP= 0.00E+00 SK= 0.00E+00
     5620 T=  1498. E= 0.60088264E+04 F= 0.43070780E+04 EK= 0.17017E+04 SP= 0.00E+00 SK= 0.00E+00
     5630 T=  1501. E= 0.60088237E+04 F= 0.43041307E+04 EK= 0.17047E+04 SP= 0.00E+00 SK= 0.00E+00
     5640 T=  1507. E= 0.60088193E+04 F= 0.42968279E+04 EK= 0.17120E+04 SP= 0.00E+00 SK= 0.00E+00
     5650 T=  1512. E= 0.60088251E+04 F= 0.42912204E+04 EK= 0.17176E+04 SP= 0.00E+00 SK= 0.00E+00
     5660 T=  1519. E= 0.60088175E+04 F= 0.42837624E+04 EK= 0.17251E+04 SP= 0.00E+00 SK= 0.00E+00
     5670 T=  1520. E= 0.60088165E+04 F= 0.42825067E+04 EK= 0.17263E+04 SP= 0.00E+00 SK= 0.00E+00
     5680 T=  1514. E= 0.60088238E+04 F= 0.42892536E+04 EK= 0.17196E+04 SP= 0.00E+00 SK= 0.00E+00
     5690 T=  1510. E= 0.60088254E+04 F= 0.42934713E+04 EK= 0.17154E+04 SP= 0.00E+00 SK= 0.00E+00
     5700 T=  1509. E= 0.60088136E+04 F= 0.42949252E+04 EK= 0.17139E+04 SP= 0.00E+00 SK= 0.00E+00
     5710 T=  1502. E= 0.60088247E+04 F= 0.43032134E+04 EK= 0.17056E+04 SP= 0.00E+00 SK= 0.00E+00
     5720 T=  1501. E= 0.60088261E+04 F= 0.43043227E+04 EK= 0.17045E+04 SP= 0.00E+00 SK= 0.00E+00
     5730 T=  1509. E= 0.60088169E+04 F= 0.42953360E+04 EK= 0.17135E+04 SP= 0.00E+00 SK= 0.00E+00
     5740 T=  1513. E= 0.60088187E+04 F= 0.42900827E+04 EK= 0.17187E+04 SP= 0.00E+00 SK= 0.00E+00
     5750 T=  1514. E= 0.60088248E+04 F= 0.42886446E+04 EK= 0.17202E+04 SP= 0.00E+00 SK= 0.00E+00
     5760 T=  1517. E= 0.60088196E+04 F= 0.42858208E+04 EK= 0.17230E+04 SP= 0.00E+00 SK= 0.00E+00
     5770 T=  1516. E= 0.60088236E+04 F= 0.42869600E+04 EK= 0.17219E+04 SP= 0.00E+00 SK= 0.00E+00
     5780 T=  1513. E= 0.60088205E+04 F= 0.42898617E+04 EK= 0.17190E+04 SP= 0.00E+00 SK= 0.00E+00
     5790 T=  1511. E= 0.60088306E+04 F= 0.42929210E+04 EK= 0.17159E+04 SP= 0.00E+00 SK= 0.00E+00
     5800 T=  1516. E= 0.60088172E+04 F= 0.42866521E+04 EK= 0.17222E+04 SP= 0.00E+00 SK= 0.00E+00
     5810 T=  1517. E= 0.60088112E+04 F= 0.42860632E+04 EK= 0.17227E+04 SP= 0.00E+00 SK= 0.00E+00
     5820 T=  1507. E= 0.60088302E+04 F= 0.42971255E+04 EK= 0.17117E+04 SP= 0.00E+00 SK= 0.00E+00
     5830 T=  1506. E= 0.60088266E+04 F= 0.42986214E+04 EK= 0.17102E+04 SP= 0.00E+00 SK= 0.00E+00
     5840 T=  1512. E= 0.60088178E+04 F= 0.42916096E+04 EK= 0.17172E+04 SP= 0.00E+00 SK= 0.00E+00
     5850 T=  1514. E= 0.60088185E+04 F= 0.42887093E+04 EK= 0.17201E+04 SP= 0.00E+00 SK= 0.00E+00
     5860 T=  1509. E= 0.60088165E+04 F= 0.42947907E+04 EK= 0.17140E+04 SP= 0.00E+00 SK= 0.00E+00
     5870 T=  1497. E= 0.60088293E+04 F= 0.43084423E+04 EK= 0.17004E+04 SP= 0.00E+00 SK= 0.00E+00
     5880 T=  1494. E= 0.60088325E+04 F= 0.43123575E+04 EK= 0.16965E+04 SP= 0.00E+00 SK= 0.00E+00
     5890 T=  1503. E= 0.60088239E+04 F= 0.43015364E+04 EK= 0.17073E+04 SP= 0.00E+00 SK= 0.00E+00
     5900 T=  1515. E= 0.60088241E+04 F= 0.42883784E+04 EK= 0.17204E+04 SP= 0.00E+00 SK= 0.00E+00
     5910 T=  1524. E= 0.60088171E+04 F= 0.42772812E+04 EK= 0.17315E+04 SP= 0.00E+00 SK= 0.00E+00
     5920 T=  1525. E= 0.60088136E+04 F= 0.42770536E+04 EK= 0.17318E+04 SP= 0.00E+00 SK= 0.00E+00
     5930 T=  1513. E= 0.60088205E+04 F= 0.42897964E+04 EK= 0.17190E+04 SP= 0.00E+00 SK= 0.00E+00
     5940 T=  1504. E= 0.60088322E+04 F= 0.43008540E+04 EK= 0.17080E+04 SP= 0.00E+00 SK= 0.00E+00
     5950 T=  1508. E= 0.60088215E+04 F= 0.42960801E+04 EK= 0.17127E+04 SP= 0.00E+00 SK= 0.00E+00
     5960 T=  1514. E= 0.60088137E+04 F= 0.42894964E+04 EK= 0.17193E+04 SP= 0.00E+00 SK= 0.00E+00
     5970 T=  1511. E= 0.60088259E+04 F= 0.42929624E+04 EK= 0.17159E+04 SP= 0.00E+00 SK= 0.00E+00
     5980 T=  1509. E= 0.60088210E+04 F= 0.42954154E+04 EK= 0.17134E+04 SP= 0.00E+00 SK= 0.00E+00
     5990 T=  1507. E= 0.60088236E+04 F= 0.42970805E+04 EK= 0.17117E+04 SP= 0.00E+00 SK= 0.00E+00
     6000 T=  1509. E= 0.60088246E+04 F= 0.42948313E+04 EK= 0.17140E+04 SP= 0.00E+00 SK= 0.00E+00
     6010 T=  1513. E= 0.60088187E+04 F= 0.42900848E+04 EK= 0.17187E+04 SP= 0.00E+00 SK= 0.00E+00
     6020 T=  1512. E= 0.60088143E+04 F= 0.42913622E+04 EK= 0.17175E+04 SP= 0.00E+00 SK= 0.00E+00
     6030 T=  1505. E= 0.60088289E+04 F= 0.42990854E+04 EK= 0.17097E+04 SP= 0.00E+00 SK= 0.00E+00
     6040 T=  1509. E= 0.60088238E+04 F= 0.42952242E+04 EK= 0.17136E+04 SP= 0.00E+00 SK= 0.00E+00
     6050 T=  1521. E= 0.60088183E+04 F= 0.42808371E+04 EK= 0.17280E+04 SP= 0.00E+00 SK= 0.00E+00
     6060 T=  1529. E= 0.60088076E+04 F= 0.42717610E+04 EK= 0.17370E+04 SP= 0.00E+00 SK= 0.00E+00
     6070 T=  1520. E= 0.60088193E+04 F= 0.42823410E+04 EK= 0.17265E+04 SP= 0.00E+00 SK= 0.00E+00
     6080 T=  1507. E= 0.60088245E+04 F= 0.42974114E+04 EK= 0.17114E+04 SP= 0.00E+00 SK= 0.00E+00
     6090 T=  1500. E= 0.60088295E+04 F= 0.43053055E+04 EK= 0.17035E+04 SP= 0.00E+00 SK= 0.00E+00
     6100 T=  1505. E= 0.60088235E+04 F= 0.42997950E+04 EK= 0.17090E+04 SP= 0.00E+00 SK= 0.00E+00
     6110 T=  1515. E= 0.60088219E+04 F= 0.42884097E+04 EK= 0.17204E+04 SP= 0.00E+00 SK= 0.00E+00
     6120 T=  1522. E= 0.60088161E+04 F= 0.42798653E+04 EK= 0.17290E+04 SP= 0.00E+00 SK= 0.00E+00
     6130 T=  1516. E= 0.60088094E+04 F= 0.42864816E+04 EK= 0.17223E+04 SP= 0.00E+00 SK= 0.00E+00
     6140 T=  1497. E= 0.60088346E+04 F= 0.43085421E+04 EK= 0.17003E+04 SP= 0.00E+00 SK= 0.00E+00
     6150 T=  1492. E= 0.60088318E+04 F= 0.43141955E+04 EK= 0.16946E+04 SP= 0.00E+00 SK= 0.00E+00
     6160 T=  1502. E= 0.60088210E+04 F= 0.43029924E+04 EK= 0.17058E+04 SP= 0.00E+00 SK= 0.00E+00
     6170 T=  1511. E= 0.60088165E+04 F= 0.42929401E+04 EK= 0.17159E+04 SP= 0.00E+00 SK= 0.00E+00
     6180 T=  1511. E= 0.60088232E+04 F= 0.42925868E+04 EK= 0.17162E+04 SP= 0.00E+00 SK= 0.00E+00
     6190 T=  1508. E= 0.60088205E+04 F= 0.42959054E+04 EK= 0.17129E+04 SP= 0.00E+00 SK= 0.00E+00
     6200 T=  1502. E= 0.60088197E+04 F= 0.43027731E+04 EK= 0.17060E+04 SP= 0.00E+00 SK= 0.00E+00
     6210 T=  1496. E= 0.60088299E+04 F= 0.43095728E+04 EK= 0.16993E+04 SP= 0.00E+00 SK= 0.00E+00
     6220 T=  1501. E= 0.60088272E+04 F= 0.43037504E+04 EK= 0.17051E+04 SP= 0.00E+00 SK= 0.00E+00
     6230 T=  1515. E= 0.60088184E+04 F= 0.42875264E+04 EK= 0.17213E+04 SP= 0.00E+00 SK= 0.00E+00
     6240 T=  1525. E= 0.60088084E+04 F= 0.42762015E+04 EK= 0.17326E+04 SP= 0.00E+00 SK= 0.00E+00
     6250 T=  1520. E= 0.60088163E+04 F= 0.42825001E+04 EK= 0.17263E+04 SP= 0.00E+00 SK= 0.00E+00
     6260 T=  1507. E= 0.60088268E+04 F= 0.42966688E+04 EK= 0.17122E+04 SP= 0.00E+00 SK= 0.00E+00
     6270 T=  1504. E= 0.60088261E+04 F= 0.43010616E+04 EK= 0.17078E+04 SP= 0.00E+00 SK= 0.00E+00
     6280 T=  1506. E= 0.60088200E+04 F= 0.42980863E+04 EK= 0.17107E+04 SP= 0.00E+00 SK= 0.00E+00
     6290 T=  1507. E= 0.60088277E+04 F= 0.42973883E+04 EK= 0.17114E+04 SP= 0.00E+00 SK= 0.00E+00
     6300 T=  1511. E= 0.60088236E+04 F= 0.42928781E+04 EK= 0.17159E+04 SP= 0.00E+00 SK= 0.00E+00
     6310 T=  1517. E= 0.60088221E+04 F= 0.42861403E+04 EK= 0.17227E+04 SP= 0.00E+00 SK= 0.00E+00
     6320 T=  1522. E= 0.60088175E+04 F= 0.42801579E+04 EK= 0.17287E+04 SP= 0.00E+00 SK= 0.00E+00
     6330 T=  1522. E= 0.60088265E+04 F= 0.42798295E+04 EK= 0.17290E+04 SP= 0.00E+00 SK= 0.00E+00
     6340 T=  1525. E= 0.60088240E+04 F= 0.42767034E+04 EK= 0.17321E+04 SP= 0.00E+00 SK= 0.00E+00
     6350 T=  1528. E= 0.60088192E+04 F= 0.42737267E+04 EK= 0.17351E+04 SP= 0.00E+00 SK= 0.00E+00
     6360 T=  1526. E= 0.60088273E+04 F= 0.42751589E+04 EK= 0.17337E+04 SP= 0.00E+00 SK= 0.00E+00
     6370 T=  1527. E= 0.60088159E+04 F= 0.42744524E+04 EK= 0.17344E+04 SP= 0.00E+00 SK= 0.00E+00
     6380 T=  1520. E= 0.60088179E+04 F= 0.42825947E+04 EK= 0.17262E+04 SP= 0.00E+00 SK= 0.00E+00
     6390 T=  1509. E= 0.60088359E+04 F= 0.42944907E+04 EK= 0.17143E+04 SP= 0.00E+00 SK= 0.00E+00
     6400 T=  1515. E= 0.60088256E+04 F= 0.42878563E+04 EK= 0.17210E+04 SP= 0.00E+00 SK= 0.00E+00
     6410 T=  1526. E= 0.60088138E+04 F= 0.42751837E+04 EK= 0.17336E+04 SP= 0.00E+00 SK= 0.00E+00
     6420 T=  1524. E= 0.60088161E+04 F= 0.42774628E+04 EK= 0.17314E+04 SP= 0.00E+00 SK= 0.00E+00
     6430 T=  1511. E= 0.60088301E+04 F= 0.42926805E+04 EK= 0.17161E+04 SP= 0.00E+00 SK= 0.00E+00
     6440 T=  1503. E= 0.60088309E+04 F= 0.43014964E+04 EK= 0.17073E+04 SP= 0.00E+00 SK= 0.00E+00
     6450 T=  1506. E= 0.60088265E+04 F= 0.42987066E+04 EK= 0.17101E+04 SP= 0.00E+00 SK= 0.00E+00
     6460 T=  1510. E= 0.60088168E+04 F= 0.42934232E+04 EK= 0.17154E+04 SP= 0.00E+00 SK= 0.00E+00
     6470 T=  1509. E= 0.60088248E+04 F= 0.42947422E+04 EK= 0.17141E+04 SP= 0.00E+00 SK= 0.00E+00
     6480 T=  1508. E= 0.60088214E+04 F= 0.42957360E+04 EK= 0.17131E+04 SP= 0.00E+00 SK= 0.00E+00
     6490 T=  1507. E= 0.60088225E+04 F= 0.42976385E+04 EK= 0.17112E+04 SP= 0.00E+00 SK= 0.00E+00
     6500 T=  1504. E= 0.60088232E+04 F= 0.43002857E+04 EK= 0.17085E+04 SP= 0.00E+00 SK= 0.00E+00
     6510 T=  1501. E= 0.60088228E+04 F= 0.43039228E+04 EK= 0.17049E+04 SP= 0.00E+00 SK= 0.00E+00
     6520 T=  1498. E= 0.60088204E+04 F= 0.43072647E+04 EK= 0.17016E+04 SP= 0.00E+00 SK= 0.00E+00
     6530 T=  1495. E= 0.60088252E+04 F= 0.43111771E+04 EK= 0.16976E+04 SP= 0.00E+00 SK= 0.00E+00
     6540 T=  1496. E= 0.60088261E+04 F= 0.43096539E+04 EK= 0.16992E+04 SP= 0.00E+00 SK= 0.00E+00
     6550 T=  1502. E= 0.60088141E+04 F= 0.43033011E+04 EK= 0.17055E+04 SP= 0.00E+00 SK= 0.00E+00
     6560 T=  1500. E= 0.60088245E+04 F= 0.43055475E+04 EK= 0.17033E+04 SP= 0.00E+00 SK= 0.00E+00
     6570 T=  1498. E= 0.60088287E+04 F= 0.43071110E+04 EK= 0.17017E+04 SP= 0.00E+00 SK= 0.00E+00
     6580 T=  1503. E= 0.60088204E+04 F= 0.43016932E+04 EK= 0.17071E+04 SP= 0.00E+00 SK= 0.00E+00
     6590 T=  1506. E= 0.60088191E+04 F= 0.42985643E+04 EK= 0.17103E+04 SP= 0.00E+00 SK= 0.00E+00
     6600 T=  1506. E= 0.60088289E+04 F= 0.42988255E+04 EK= 0.17100E+04 SP= 0.00E+00 SK= 0.00E+00
     6610 T=  1511. E= 0.60088198E+04 F= 0.42930261E+04 EK= 0.17158E+04 SP= 0.00E+00 SK= 0.00E+00
     6620 T=  1513. E= 0.60088186E+04 F= 0.42907344E+04 EK= 0.17181E+04 SP= 0.00E+00 SK= 0.00E+00
     6630 T=  1510. E= 0.60088255E+04 F= 0.42939146E+04 EK= 0.17149E+04 SP= 0.00E+00 SK= 0.00E+00
     6640 T=  1508. E= 0.60088171E+04 F= 0.42965553E+04 EK= 0.17123E+04 SP= 0.00E+00 SK= 0.00E+00
     6650 T=  1500. E= 0.60088260E+04 F= 0.43056576E+04 EK= 0.17032E+04 SP= 0.00E+00 SK= 0.00E+00
     6660 T=  1494. E= 0.60088286E+04 F= 0.43123891E+04 EK= 0.16964E+04 SP= 0.00E+00 SK= 0.00E+00
     6670 T=  1497. E= 0.60088274E+04 F= 0.43086528E+04 EK= 0.17002E+04 SP= 0.00E+00 SK= 0.00E+00
     6680 T=  1506. E= 0.60088182E+04 F= 0.42984590E+04 EK= 0.17104E+04 SP= 0.00E+00 SK= 0.00E+00
     6690 T=  1512. E= 0.60088216E+04 F= 0.42918400E+04 EK= 0.17170E+04 SP= 0.00E+00 SK= 0.00E+00
     6700 T=  1516. E= 0.60088163E+04 F= 0.42871905E+04 EK= 0.17216E+04 SP= 0.00E+00 SK= 0.00E+00
     6710 T=  1513. E= 0.60088199E+04 F= 0.42905797E+04 EK= 0.17182E+04 SP= 0.00E+00 SK= 0.00E+00
     6720 T=  1505. E= 0.60088261E+04 F= 0.42993934E+04 EK= 0.17094E+04 SP= 0.00E+00 SK= 0.00E+00
     6730 T=  1500. E= 0.60088302E+04 F= 0.43053222E+04 EK= 0.17035E+04 SP= 0.00E+00 SK= 0.00E+00
     6740 T=  1501. E= 0.60088258E+04 F= 0.43036779E+04 EK= 0.17051E+04 SP= 0.00E+00 SK= 0.00E+00
     6750 T=  1504. E= 0.60088246E+04 F= 0.43000541E+04 EK= 0.17088E+04 SP= 0.00E+00 SK= 0.00E+00
     6760 T=  1507. E= 0.60088229E+04 F= 0.42972692E+04 EK= 0.17116E+04 SP= 0.00E+00 SK= 0.00E+00
     6770 T=  1508. E= 0.60088240E+04 F= 0.42958543E+04 EK= 0.17130E+04 SP= 0.00E+00 SK= 0.00E+00
     6780 T=  1509. E= 0.60088173E+04 F= 0.42952854E+04 EK= 0.17135E+04 SP= 0.00E+00 SK= 0.00E+00
     6790 T=  1505. E= 0.60088300E+04 F= 0.42991109E+04 EK= 0.17097E+04 SP= 0.00E+00 SK= 0.00E+00
     6800 T=  1510. E= 0.60088274E+04 F= 0.42940949E+04 EK= 0.17147E+04 SP= 0.00E+00 SK= 0.00E+00
     6810 T=  1516. E= 0.60088118E+04 F= 0.42863951E+04 EK= 0.17224E+04 SP= 0.00E+00 SK= 0.00E+00
     6820 T=  1509. E= 0.60088281E+04 F= 0.42943732E+04 EK= 0.17145E+04 SP= 0.00E+00 SK= 0.00E+00
     6830 T=  1506. E= 0.60088315E+04 F= 0.42980293E+04 EK= 0.17108E+04 SP= 0.00E+00 SK= 0.00E+00
     6840 T=  1511. E= 0.60088205E+04 F= 0.42924459E+04 EK= 0.17164E+04 SP= 0.00E+00 SK= 0.00E+00
     6850 T=  1513. E= 0.60088272E+04 F= 0.42899357E+04 EK= 0.17189E+04 SP= 0.00E+00 SK= 0.00E+00
     6860 T=  1518. E= 0.60088210E+04 F= 0.42852134E+04 EK= 0.17236E+04 SP= 0.00E+00 SK= 0.00E+00
     6870 T=  1519. E= 0.60088222E+04 F= 0.42833090E+04 EK= 0.17255E+04 SP= 0.00E+00 SK= 0.00E+00
     6880 T=  1521. E= 0.60088181E+04 F= 0.42813674E+04 EK= 0.17275E+04 SP= 0.00E+00 SK= 0.00E+00
     6890 T=  1518. E= 0.60088152E+04 F= 0.42848754E+04 EK= 0.17239E+04 SP= 0.00E+00 SK= 0.00E+00
     6900 T=  1508. E= 0.60088212E+04 F= 0.42956179E+04 EK= 0.17132E+04 SP= 0.00E+00 SK= 0.00E+00
     6910 T=  1501. E= 0.60088244E+04 F= 0.43041944E+04 EK= 0.17046E+04 SP= 0.00E+00 SK= 0.00E+00
     6920 T=  1499. E= 0.60088226E+04 F= 0.43058770E+04 EK= 0.17029E+04 SP= 0.00E+00 SK= 0.00E+00
     6930 T=  1503. E= 0.60088204E+04 F= 0.43014720E+04 EK= 0.17073E+04 SP= 0.00E+00 SK= 0.00E+00
     6940 T=  1507. E= 0.60088220E+04 F= 0.42969328E+04 EK= 0.17119E+04 SP= 0.00E+00 SK= 0.00E+00
     6950 T=  1511. E= 0.60088212E+04 F= 0.42931612E+04 EK= 0.17157E+04 SP= 0.00E+00 SK= 0.00E+00
     6960 T=  1514. E= 0.60088253E+04 F= 0.42887150E+04 EK= 0.17201E+04 SP= 0.00E+00 SK= 0.00E+00
     6970 T=  1521. E= 0.60088131E+04 F= 0.42806966E+04 EK= 0.17281E+04 SP= 0.00E+00 SK= 0.00E+00
     6980 T=  1521. E= 0.60088189E+04 F= 0.42811530E+04 EK= 0.17277E+04 SP= 0.00E+00 SK= 0.00E+00
     6990 T=  1516. E= 0.60088224E+04 F= 0.42868184E+04 EK= 0.17220E+04 SP= 0.00E+00 SK= 0.00E+00
     7000 T=  1510. E= 0.60088198E+04 F= 0.42935242E+04 EK= 0.17153E+04 SP= 0.00E+00 SK= 0.00E+00
     7010 T=  1502. E= 0.60088257E+04 F= 0.43028130E+04 EK= 0.17060E+04 SP= 0.00E+00 SK= 0.00E+00
     7020 T=  1501. E= 0.60088328E+04 F= 0.43039500E+04 EK= 0.17049E+04 SP= 0.00E+00 SK= 0.00E+00
     7030 T=  1514. E= 0.60088214E+04 F= 0.42897040E+04 EK= 0.17191E+04 SP= 0.00E+00 SK= 0.00E+00
     7040 T=  1526. E= 0.60088155E+04 F= 0.42750186E+04 EK= 0.17338E+04 SP= 0.00E+00 SK= 0.00E+00
     7050 T=  1527. E= 0.60088125E+04 F= 0.42742193E+04 EK= 0.17346E+04 SP= 0.00E+00 SK= 0.00E+00
     7060 T=  1514. E= 0.60088261E+04 F= 0.42889763E+04 EK= 0.17198E+04 SP= 0.00E+00 SK= 0.00E+00
     7070 T=  1505. E= 0.60088279E+04 F= 0.42996109E+04 EK= 0.17092E+04 SP= 0.00E+00 SK= 0.00E+00
     7080 T=  1506. E= 0.60088260E+04 F= 0.42980506E+04 EK= 0.17108E+04 SP= 0.00E+00 SK= 0.00E+00
     7090 T=  1515. E= 0.60088112E+04 F= 0.42886102E+04 EK= 0.17202E+04 SP= 0.00E+00 SK= 0.00E+00
     7100 T=  1513. E= 0.60088123E+04 F= 0.42903169E+04 EK= 0.17185E+04 SP= 0.00E+00 SK= 0.00E+00
     7110 T=  1502. E= 0.60088257E+04 F= 0.43025766E+04 EK= 0.17062E+04 SP= 0.00E+00 SK= 0.00E+00
     7120 T=  1498. E= 0.60088227E+04 F= 0.43074489E+04 EK= 0.17014E+04 SP= 0.00E+00 SK= 0.00E+00
     7130 T=  1500. E= 0.60088233E+04 F= 0.43048517E+04 EK= 0.17040E+04 SP= 0.00E+00 SK= 0.00E+00
     7140 T=  1507. E= 0.60088237E+04 F= 0.42976751E+04 EK= 0.17111E+04 SP= 0.00E+00 SK= 0.00E+00
     7150 T=  1513. E= 0.60088224E+04 F= 0.42899617E+04 EK= 0.17189E+04 SP= 0.00E+00 SK= 0.00E+00
     7160 T=  1516. E= 0.60088189E+04 F= 0.42872188E+04 EK= 0.17216E+04 SP= 0.00E+00 SK= 0.00E+00
     7170 T=  1510. E= 0.60088220E+04 F= 0.42938292E+04 EK= 0.17150E+04 SP= 0.00E+00 SK= 0.00E+00
     7180 T=  1504. E= 0.60088320E+04 F= 0.43006880E+04 EK= 0.17081E+04 SP= 0.00E+00 SK= 0.00E+00
     7190 T=  1508. E= 0.60088258E+04 F= 0.42963596E+04 EK= 0.17125E+04 SP= 0.00E+00 SK= 0.00E+00
     7200 T=  1516. E= 0.60088221E+04 F= 0.42873706E+04 EK= 0.17215E+04 SP= 0.00E+00 SK= 0.00E+00
     7210 T=  1521. E= 0.60088178E+04 F= 0.42807657E+04 EK= 0.17281E+04 SP= 0.00E+00 SK= 0.00E+00
     7220 T=  1520. E= 0.60088184E+04 F= 0.42821590E+04 EK= 0.17267E+04 SP= 0.00E+00 SK= 0.00E+00
     7230 T=  1513. E= 0.60088235E+04 F= 0.42903418E+04 EK= 0.17185E+04 SP= 0.00E+00 SK= 0.00E+00
     7240 T=  1507. E= 0.60088286E+04 F= 0.42968815E+04 EK= 0.17119E+04 SP= 0.00E+00 SK= 0.00E+00
     7250 T=  1511. E= 0.60088246E+04 F= 0.42930186E+04 EK= 0.17158E+04 SP= 0.00E+00 SK= 0.00E+00
     7260 T=  1519. E= 0.60088236E+04 F= 0.42832084E+04 EK= 0.17256E+04 SP= 0.00E+00 SK= 0.00E+00
     7270 T=  1527. E= 0.60088109E+04 F= 0.42743327E+04 EK= 0.17345E+04 SP= 0.00E+00 SK= 0.00E+00
     7280 T=  1521. E= 0.60088155E+04 F= 0.42812245E+04 EK= 0.17276E+04 SP= 0.00E+00 SK= 0.00E+00
     7290 T=  1505. E= 0.60088210E+04 F= 0.42992554E+04 EK= 0.17096E+04 SP= 0.00E+00 SK= 0.00E+00
     7300 T=  1491. E= 0.60088320E+04 F= 0.43153017E+04 EK= 0.16935E+04 SP= 0.00E+00 SK= 0.00E+00
     7310 T=  1494. E= 0.60088299E+04 F= 0.43120722E+04 EK= 0.16968E+04 SP= 0.00E+00 SK= 0.00E+00
     7320 T=  1511. E= 0.60088142E+04 F= 0.42930435E+04 EK= 0.17158E+04 SP= 0.00E+00 SK= 0.00E+00
     7330 T=  1521. E= 0.60088156E+04 F= 0.42808476E+04 EK= 0.17280E+04 SP= 0.00E+00 SK= 0.00E+00
     7340 T=  1523. E= 0.60088224E+04 F= 0.42784429E+04 EK= 0.17304E+04 SP= 0.00E+00 SK= 0.00E+00
     7350 T=  1521. E= 0.60088170E+04 F= 0.42817298E+04 EK= 0.17271E+04 SP= 0.00E+00 SK= 0.00E+00
     7360 T=  1512. E= 0.60088320E+04 F= 0.42910709E+04 EK= 0.17178E+04 SP= 0.00E+00 SK= 0.00E+00
     7370 T=  1515. E= 0.60088217E+04 F= 0.42880567E+04 EK= 0.17208E+04 SP= 0.00E+00 SK= 0.00E+00
     7380 T=  1523. E= 0.60088180E+04 F= 0.42792436E+04 EK= 0.17296E+04 SP= 0.00E+00 SK= 0.00E+00
     7390 T=  1529. E= 0.60088106E+04 F= 0.42718863E+04 EK= 0.17369E+04 SP= 0.00E+00 SK= 0.00E+00
     7400 T=  1527. E= 0.60088148E+04 F= 0.42739966E+04 EK= 0.17348E+04 SP= 0.00E+00 SK= 0.00E+00
     7410 T=  1519. E= 0.60088202E+04 F= 0.42829705E+04 EK= 0.17258E+04 SP= 0.00E+00 SK= 0.00E+00
     7420 T=  1513. E= 0.60088206E+04 F= 0.42901429E+04 EK= 0.17187E+04 SP= 0.00E+00 SK= 0.00E+00
     7430 T=  1511. E= 0.60088216E+04 F= 0.42929902E+04 EK= 0.17158E+04 SP= 0.00E+00 SK= 0.00E+00
     7440 T=  1513. E= 0.60088219E+04 F= 0.42902382E+04 EK= 0.17186E+04 SP= 0.00E+00 SK= 0.00E+00
     7450 T=  1518. E= 0.60088061E+04 F= 0.42841990E+04 EK= 0.17246E+04 SP= 0.00E+00 SK= 0.00E+00
     7460 T=  1512. E= 0.60088179E+04 F= 0.42915421E+04 EK= 0.17173E+04 SP= 0.00E+00 SK= 0.00E+00
     7470 T=  1506. E= 0.60088224E+04 F= 0.42982148E+04 EK= 0.17106E+04 SP= 0.00E+00 SK= 0.00E+00
     7480 T=  1510. E= 0.60088155E+04 F= 0.42934238E+04 EK= 0.17154E+04 SP= 0.00E+00 SK= 0.00E+00
     7490 T=  1517. E= 0.60088101E+04 F= 0.42863214E+04 EK= 0.17225E+04 SP= 0.00E+00 SK= 0.00E+00
     7500 T=  1515. E= 0.60088130E+04 F= 0.42881052E+04 EK= 0.17207E+04 SP= 0.00E+00 SK= 0.00E+00
     7510 T=  1507. E= 0.60088216E+04 F= 0.42973511E+04 EK= 0.17115E+04 SP= 0.00E+00 SK= 0.00E+00
     7520 T=  1504. E= 0.60088226E+04 F= 0.43007276E+04 EK= 0.17081E+04 SP= 0.00E+00 SK= 0.00E+00
     7530 T=  1508. E= 0.60088125E+04 F= 0.42958625E+04 EK= 0.17130E+04 SP= 0.00E+00 SK= 0.00E+00
     7540 T=  1513. E= 0.60088171E+04 F= 0.42900350E+04 EK= 0.17188E+04 SP= 0.00E+00 SK= 0.00E+00
     7550 T=  1519. E= 0.60088067E+04 F= 0.42837824E+04 EK= 0.17250E+04 SP= 0.00E+00 SK= 0.00E+00
     7560 T=  1513. E= 0.60088160E+04 F= 0.42905599E+04 EK= 0.17183E+04 SP= 0.00E+00 SK= 0.00E+00
     7570 T=  1506. E= 0.60088279E+04 F= 0.42977523E+04 EK= 0.17111E+04 SP= 0.00E+00 SK= 0.00E+00
     7580 T=  1512. E= 0.60088135E+04 F= 0.42914100E+04 EK= 0.17174E+04 SP= 0.00E+00 SK= 0.00E+00
     7590 T=  1513. E= 0.60088163E+04 F= 0.42904619E+04 EK= 0.17184E+04 SP= 0.00E+00 SK= 0.00E+00
     7600 T=  1510. E= 0.60088244E+04 F= 0.42935123E+04 EK= 0.17153E+04 SP= 0.00E+00 SK= 0.00E+00
     7610 T=  1513. E= 0.60088167E+04 F= 0.42902843E+04 EK= 0.17185E+04 SP= 0.00E+00 SK= 0.00E+00
     7620 T=  1510. E= 0.60088129E+04 F= 0.42934278E+04 EK= 0.17154E+04 SP= 0.00E+00 SK= 0.00E+00
     7630 T=  1501. E= 0.60088308E+04 F= 0.43044587E+04 EK= 0.17044E+04 SP= 0.00E+00 SK= 0.00E+00
     7640 T=  1502. E= 0.60088225E+04 F= 0.43030794E+04 EK= 0.17057E+04 SP= 0.00E+00 SK= 0.00E+00
     7650 T=  1508. E= 0.60088226E+04 F= 0.42955269E+04 EK= 0.17133E+04 SP= 0.00E+00 SK= 0.00E+00
     7660 T=  1514. E= 0.60088140E+04 F= 0.42888300E+04 EK= 0.17200E+04 SP= 0.00E+00 SK= 0.00E+00
     7670 T=  1515. E= 0.60088216E+04 F= 0.42884818E+04 EK= 0.17203E+04 SP= 0.00E+00 SK= 0.00E+00
     7680 T=  1518. E= 0.60088227E+04 F= 0.42847888E+04 EK= 0.17240E+04 SP= 0.00E+00 SK= 0.00E+00
     7690 T=  1524. E= 0.60088102E+04 F= 0.42779643E+04 EK= 0.17308E+04 SP= 0.00E+00 SK= 0.00E+00
     7700 T=  1521. E= 0.60088218E+04 F= 0.42808443E+04 EK= 0.17280E+04 SP= 0.00E+00 SK= 0.00E+00
     7710 T=  1518. E= 0.60088264E+04 F= 0.42844077E+04 EK= 0.17244E+04 SP= 0.00E+00 SK= 0.00E+00
     7720 T=  1521. E= 0.60088161E+04 F= 0.42815431E+04 EK= 0.17273E+04 SP= 0.00E+00 SK= 0.00E+00
     7730 T=  1517. E= 0.60088106E+04 F= 0.42858599E+04 EK= 0.17230E+04 SP= 0.00E+00 SK= 0.00E+00
     7740 T=  1502. E= 0.60088294E+04 F= 0.43027292E+04 EK= 0.17061E+04 SP= 0.00E+00 SK= 0.00E+00
     7750 T=  1498. E= 0.60088264E+04 F= 0.43076544E+04 EK= 0.17012E+04 SP= 0.00E+00 SK= 0.00E+00
     7760 T=  1503. E= 0.60088186E+04 F= 0.43015875E+04 EK= 0.17072E+04 SP= 0.00E+00 SK= 0.00E+00
     7770 T=  1506. E= 0.60088165E+04 F= 0.42982264E+04 EK= 0.17106E+04 SP= 0.00E+00 SK= 0.00E+00
     7780 T=  1503. E= 0.60088228E+04 F= 0.43011502E+04 EK= 0.17077E+04 SP= 0.00E+00 SK= 0.00E+00
     7790 T=  1503. E= 0.60088254E+04 F= 0.43017770E+04 EK= 0.17070E+04 SP= 0.00E+00 SK= 0.00E+00
     7800 T=  1509. E= 0.60088262E+04 F= 0.42949959E+04 EK= 0.17138E+04 SP= 0.00E+00 SK= 0.00E+00
     7810 T=  1520. E= 0.60088205E+04 F= 0.42820723E+04 EK= 0.17267E+04 SP= 0.00E+00 SK= 0.00E+00
     7820 T=  1530. E= 0.60088128E+04 F= 0.42705505E+04 EK= 0.17383E+04 SP= 0.00E+00 SK= 0.00E+00
     7830 T=  1529. E= 0.60088118E+04 F= 0.42724943E+04 EK= 0.17363E+04 SP= 0.00E+00 SK= 0.00E+00
     7840 T=  1517. E= 0.60088220E+04 F= 0.42863019E+04 EK= 0.17225E+04 SP= 0.00E+00 SK= 0.00E+00
     7850 T=  1509. E= 0.60088250E+04 F= 0.42945972E+04 EK= 0.17142E+04 SP= 0.00E+00 SK= 0.00E+00
[...]
    24080 T=  1505. E= 0.60088147E+04 F= 0.42996857E+04 EK= 0.17091E+04 SP= 0.00E+00 SK= 0.00E+00
    24090 T=  1502. E= 0.60088102E+04 F= 0.43032637E+04 EK= 0.17055E+04 SP= 0.00E+00 SK= 0.00E+00
    24100 T=  1497. E= 0.60088212E+04 F= 0.43088327E+04 EK= 0.17000E+04 SP= 0.00E+00 SK= 0.00E+00
    24110 T=  1499. E= 0.60088127E+04 F= 0.43062933E+04 EK= 0.17025E+04 SP= 0.00E+00 SK= 0.00E+00
    24120 T=  1503. E= 0.60088118E+04 F= 0.43017791E+04 EK= 0.17070E+04 SP= 0.00E+00 SK= 0.00E+00
    24130 T=  1504. E= 0.60088064E+04 F= 0.43008080E+04 EK= 0.17080E+04 SP= 0.00E+00 SK= 0.00E+00
    24140 T=  1500. E= 0.60088201E+04 F= 0.43052636E+04 EK= 0.17036E+04 SP= 0.00E+00 SK= 0.00E+00
    24150 T=  1502. E= 0.60088080E+04 F= 0.43023717E+04 EK= 0.17064E+04 SP= 0.00E+00 SK= 0.00E+00
    24160 T=  1501. E= 0.60088157E+04 F= 0.43036963E+04 EK= 0.17051E+04 SP= 0.00E+00 SK= 0.00E+00
    24170 T=  1504. E= 0.60088248E+04 F= 0.43005686E+04 EK= 0.17083E+04 SP= 0.00E+00 SK= 0.00E+00
    24180 T=  1518. E= 0.60088093E+04 F= 0.42850480E+04 EK= 0.17238E+04 SP= 0.00E+00 SK= 0.00E+00
    24190 T=  1522. E= 0.60088027E+04 F= 0.42800478E+04 EK= 0.17288E+04 SP= 0.00E+00 SK= 0.00E+00
    24200 T=  1511. E= 0.60088189E+04 F= 0.42926872E+04 EK= 0.17161E+04 SP= 0.00E+00 SK= 0.00E+00
    24210 T=  1505. E= 0.60088217E+04 F= 0.42999671E+04 EK= 0.17089E+04 SP= 0.00E+00 SK= 0.00E+00
    24220 T=  1510. E= 0.60088184E+04 F= 0.42939088E+04 EK= 0.17149E+04 SP= 0.00E+00 SK= 0.00E+00
    24230 T=  1518. E= 0.60088048E+04 F= 0.42849641E+04 EK= 0.17238E+04 SP= 0.00E+00 SK= 0.00E+00
    24240 T=  1513. E= 0.60088159E+04 F= 0.42901599E+04 EK= 0.17187E+04 SP= 0.00E+00 SK= 0.00E+00
    24250 T=  1505. E= 0.60088192E+04 F= 0.42988828E+04 EK= 0.17099E+04 SP= 0.00E+00 SK= 0.00E+00
    24260 T=  1501. E= 0.60088231E+04 F= 0.43034743E+04 EK= 0.17053E+04 SP= 0.00E+00 SK= 0.00E+00
    24270 T=  1504. E= 0.60088198E+04 F= 0.43003086E+04 EK= 0.17085E+04 SP= 0.00E+00 SK= 0.00E+00
    24280 T=  1511. E= 0.60088150E+04 F= 0.42920462E+04 EK= 0.17168E+04 SP= 0.00E+00 SK= 0.00E+00
    24290 T=  1513. E= 0.60088093E+04 F= 0.42899238E+04 EK= 0.17189E+04 SP= 0.00E+00 SK= 0.00E+00
    24300 T=  1506. E= 0.60088230E+04 F= 0.42987164E+04 EK= 0.17101E+04 SP= 0.00E+00 SK= 0.00E+00
    24310 T=  1506. E= 0.60088255E+04 F= 0.42983489E+04 EK= 0.17105E+04 SP= 0.00E+00 SK= 0.00E+00
    24320 T=  1518. E= 0.60088147E+04 F= 0.42840910E+04 EK= 0.17247E+04 SP= 0.00E+00 SK= 0.00E+00
    24330 T=  1529. E= 0.60088099E+04 F= 0.42721793E+04 EK= 0.17366E+04 SP= 0.00E+00 SK= 0.00E+00
    24340 T=  1527. E= 0.60088116E+04 F= 0.42747147E+04 EK= 0.17341E+04 SP= 0.00E+00 SK= 0.00E+00
    24350 T=  1518. E= 0.60088300E+04 F= 0.42845311E+04 EK= 0.17243E+04 SP= 0.00E+00 SK= 0.00E+00
    24360 T=  1519. E= 0.60088120E+04 F= 0.42834847E+04 EK= 0.17253E+04 SP= 0.00E+00 SK= 0.00E+00
    24370 T=  1515. E= 0.60088167E+04 F= 0.42877297E+04 EK= 0.17211E+04 SP= 0.00E+00 SK= 0.00E+00
    24380 T=  1509. E= 0.60088186E+04 F= 0.42944384E+04 EK= 0.17144E+04 SP= 0.00E+00 SK= 0.00E+00
    24390 T=  1506. E= 0.60088151E+04 F= 0.42982703E+04 EK= 0.17105E+04 SP= 0.00E+00 SK= 0.00E+00
    24400 T=  1503. E= 0.60088194E+04 F= 0.43022169E+04 EK= 0.17066E+04 SP= 0.00E+00 SK= 0.00E+00
    24410 T=  1503. E= 0.60088187E+04 F= 0.43012543E+04 EK= 0.17076E+04 SP= 0.00E+00 SK= 0.00E+00
    24420 T=  1509. E= 0.60088136E+04 F= 0.42951876E+04 EK= 0.17136E+04 SP= 0.00E+00 SK= 0.00E+00
    24430 T=  1511. E= 0.60088118E+04 F= 0.42929095E+04 EK= 0.17159E+04 SP= 0.00E+00 SK= 0.00E+00
    24440 T=  1508. E= 0.60088236E+04 F= 0.42957123E+04 EK= 0.17131E+04 SP= 0.00E+00 SK= 0.00E+00
    24450 T=  1512. E= 0.60088136E+04 F= 0.42909112E+04 EK= 0.17179E+04 SP= 0.00E+00 SK= 0.00E+00
    24460 T=  1513. E= 0.60088087E+04 F= 0.42903664E+04 EK= 0.17184E+04 SP= 0.00E+00 SK= 0.00E+00
    24470 T=  1506. E= 0.60088189E+04 F= 0.42982422E+04 EK= 0.17106E+04 SP= 0.00E+00 SK= 0.00E+00
    24480 T=  1504. E= 0.60088186E+04 F= 0.43000093E+04 EK= 0.17088E+04 SP= 0.00E+00 SK= 0.00E+00
    24490 T=  1508. E= 0.60088129E+04 F= 0.42958085E+04 EK= 0.17130E+04 SP= 0.00E+00 SK= 0.00E+00
    24500 T=  1509. E= 0.60088114E+04 F= 0.42946494E+04 EK= 0.17142E+04 SP= 0.00E+00 SK= 0.00E+00
    24510 T=  1506. E= 0.60088214E+04 F= 0.42979622E+04 EK= 0.17109E+04 SP= 0.00E+00 SK= 0.00E+00
    24520 T=  1511. E= 0.60088232E+04 F= 0.42928328E+04 EK= 0.17160E+04 SP= 0.00E+00 SK= 0.00E+00
    24530 T=  1524. E= 0.60088125E+04 F= 0.42774272E+04 EK= 0.17314E+04 SP= 0.00E+00 SK= 0.00E+00
    24540 T=  1531. E= 0.60088031E+04 F= 0.42694165E+04 EK= 0.17394E+04 SP= 0.00E+00 SK= 0.00E+00
    24550 T=  1522. E= 0.60088195E+04 F= 0.42801803E+04 EK= 0.17286E+04 SP= 0.00E+00 SK= 0.00E+00
    24560 T=  1516. E= 0.60088279E+04 F= 0.42870962E+04 EK= 0.17217E+04 SP= 0.00E+00 SK= 0.00E+00
    24570 T=  1521. E= 0.60088132E+04 F= 0.42809047E+04 EK= 0.17279E+04 SP= 0.00E+00 SK= 0.00E+00
    24580 T=  1524. E= 0.60088194E+04 F= 0.42780505E+04 EK= 0.17308E+04 SP= 0.00E+00 SK= 0.00E+00
    24590 T=  1523. E= 0.60088103E+04 F= 0.42790195E+04 EK= 0.17298E+04 SP= 0.00E+00 SK= 0.00E+00
    24600 T=  1515. E= 0.60088270E+04 F= 0.42878901E+04 EK= 0.17209E+04 SP= 0.00E+00 SK= 0.00E+00
    24610 T=  1514. E= 0.60088136E+04 F= 0.42889702E+04 EK= 0.17198E+04 SP= 0.00E+00 SK= 0.00E+00
    24620 T=  1511. E= 0.60088214E+04 F= 0.42929631E+04 EK= 0.17159E+04 SP= 0.00E+00 SK= 0.00E+00
    24630 T=  1512. E= 0.60088229E+04 F= 0.42913987E+04 EK= 0.17174E+04 SP= 0.00E+00 SK= 0.00E+00
    24640 T=  1520. E= 0.60088088E+04 F= 0.42826279E+04 EK= 0.17262E+04 SP= 0.00E+00 SK= 0.00E+00
    24650 T=  1517. E= 0.60088087E+04 F= 0.42860123E+04 EK= 0.17228E+04 SP= 0.00E+00 SK= 0.00E+00
    24660 T=  1505. E= 0.60088207E+04 F= 0.42994999E+04 EK= 0.17093E+04 SP= 0.00E+00 SK= 0.00E+00
    24670 T=  1500. E= 0.60088211E+04 F= 0.43051311E+04 EK= 0.17037E+04 SP= 0.00E+00 SK= 0.00E+00
    24680 T=  1504. E= 0.60088174E+04 F= 0.43001268E+04 EK= 0.17087E+04 SP= 0.00E+00 SK= 0.00E+00
    24690 T=  1512. E= 0.60088124E+04 F= 0.42910463E+04 EK= 0.17178E+04 SP= 0.00E+00 SK= 0.00E+00
    24700 T=  1515. E= 0.60088064E+04 F= 0.42877019E+04 EK= 0.17211E+04 SP= 0.00E+00 SK= 0.00E+00
    24710 T=  1510. E= 0.60088164E+04 F= 0.42940681E+04 EK= 0.17147E+04 SP= 0.00E+00 SK= 0.00E+00
    24720 T=  1506. E= 0.60088144E+04 F= 0.42986937E+04 EK= 0.17101E+04 SP= 0.00E+00 SK= 0.00E+00
    24730 T=  1503. E= 0.60088254E+04 F= 0.43012998E+04 EK= 0.17075E+04 SP= 0.00E+00 SK= 0.00E+00
    24740 T=  1513. E= 0.60088218E+04 F= 0.42907396E+04 EK= 0.17181E+04 SP= 0.00E+00 SK= 0.00E+00
    24750 T=  1523. E= 0.60087981E+04 F= 0.42785836E+04 EK= 0.17302E+04 SP= 0.00E+00 SK= 0.00E+00
    24760 T=  1511. E= 0.60088209E+04 F= 0.42924160E+04 EK= 0.17164E+04 SP= 0.00E+00 SK= 0.00E+00
    24770 T=  1497. E= 0.60088252E+04 F= 0.43083257E+04 EK= 0.17005E+04 SP= 0.00E+00 SK= 0.00E+00
    24780 T=  1495. E= 0.60088276E+04 F= 0.43110676E+04 EK= 0.16978E+04 SP= 0.00E+00 SK= 0.00E+00
    24790 T=  1504. E= 0.60088191E+04 F= 0.43000980E+04 EK= 0.17087E+04 SP= 0.00E+00 SK= 0.00E+00
    24800 T=  1514. E= 0.60088089E+04 F= 0.42895350E+04 EK= 0.17193E+04 SP= 0.00E+00 SK= 0.00E+00
    24810 T=  1510. E= 0.60088171E+04 F= 0.42932055E+04 EK= 0.17156E+04 SP= 0.00E+00 SK= 0.00E+00
    24820 T=  1504. E= 0.60088243E+04 F= 0.43001118E+04 EK= 0.17087E+04 SP= 0.00E+00 SK= 0.00E+00
    24830 T=  1506. E= 0.60088196E+04 F= 0.42981264E+04 EK= 0.17107E+04 SP= 0.00E+00 SK= 0.00E+00
    24840 T=  1512. E= 0.60088159E+04 F= 0.42915430E+04 EK= 0.17173E+04 SP= 0.00E+00 SK= 0.00E+00
    24850 T=  1516. E= 0.60088137E+04 F= 0.42869366E+04 EK= 0.17219E+04 SP= 0.00E+00 SK= 0.00E+00
    24860 T=  1515. E= 0.60088205E+04 F= 0.42878207E+04 EK= 0.17210E+04 SP= 0.00E+00 SK= 0.00E+00
    24870 T=  1519. E= 0.60088132E+04 F= 0.42839615E+04 EK= 0.17249E+04 SP= 0.00E+00 SK= 0.00E+00
    24880 T=  1520. E= 0.60088057E+04 F= 0.42822393E+04 EK= 0.17266E+04 SP= 0.00E+00 SK= 0.00E+00
    24890 T=  1515. E= 0.60088145E+04 F= 0.42885708E+04 EK= 0.17202E+04 SP= 0.00E+00 SK= 0.00E+00
    24900 T=  1512. E= 0.60088146E+04 F= 0.42918555E+04 EK= 0.17170E+04 SP= 0.00E+00 SK= 0.00E+00
    24910 T=  1513. E= 0.60088201E+04 F= 0.42905920E+04 EK= 0.17182E+04 SP= 0.00E+00 SK= 0.00E+00
    24920 T=  1517. E= 0.60088028E+04 F= 0.42859954E+04 EK= 0.17228E+04 SP= 0.00E+00 SK= 0.00E+00
    24930 T=  1509. E= 0.60088209E+04 F= 0.42952663E+04 EK= 0.17136E+04 SP= 0.00E+00 SK= 0.00E+00
    24940 T=  1504. E= 0.60088155E+04 F= 0.43000882E+04 EK= 0.17087E+04 SP= 0.00E+00 SK= 0.00E+00
    24950 T=  1505. E= 0.60088157E+04 F= 0.42994696E+04 EK= 0.17093E+04 SP= 0.00E+00 SK= 0.00E+00
    24960 T=  1506. E= 0.60088121E+04 F= 0.42980169E+04 EK= 0.17108E+04 SP= 0.00E+00 SK= 0.00E+00
    24970 T=  1506. E= 0.60088209E+04 F= 0.42987225E+04 EK= 0.17101E+04 SP= 0.00E+00 SK= 0.00E+00
    24980 T=  1510. E= 0.60088142E+04 F= 0.42938082E+04 EK= 0.17150E+04 SP= 0.00E+00 SK= 0.00E+00
    24990 T=  1513. E= 0.60088174E+04 F= 0.42899389E+04 EK= 0.17189E+04 SP= 0.00E+00 SK= 0.00E+00
Rc and Rl:   5.500000  7.500000
Rc and Rl:   5.500000  7.500000

Average number of steps between two list updates:  32.43
Average number of atoms in the shell:     0.01

Average number of steps between two list updates:  32.43
Average number of atoms in the shell:     0.01
Rc and Rl:   5.500000  7.500000
Rc and Rl:   5.500000  7.500000

Average number of steps between two list updates:  32.43
Average number of atoms in the shell:     0.01

Average number of steps between two list updates:  32.43
Average number of atoms in the shell:     0.01
Rc and Rl:   5.500000  7.500000
Rc and Rl:   5.500000  7.500000

Average number of steps between two list updates:  32.43
Average number of atoms in the shell:     0.01

Average number of steps between two list updates:  32.43
Average number of atoms in the shell:     0.01
Rc and Rl:   5.500000  7.500000
Rc and Rl:   5.500000  7.500000

Average number of steps between two list updates:  32.43
Average number of atoms in the shell:     0.01

Average number of steps between two list updates:  32.43
Average number of atoms in the shell:     0.01
Rc and Rl:   5.500000  7.500000
Rc and Rl:   5.500000  7.500000

Average number of steps between two list updates:  32.43
Average number of atoms in the shell:     0.01

Average number of steps between two list updates:  32.43
Rc and Rl:   5.500000  7.500000
Rc and Rl:   5.500000  7.500000

Rc and Rl:   5.500000  7.500000
Rc and Rl:   5.500000  7.500000

Average number of steps between two list updates:  32.43
Average number of atoms in the shell:     0.01

Average number of steps between two list updates:  32.43
Average number of atoms in the shell:     0.01
Average number of atoms in the shell:     0.01
Average number of steps between two list updates:  32.43
Average number of atoms in the shell:     0.01

Average number of steps between two list updates:  32.43
Average number of atoms in the shell:     0.01
Rc and Rl:   5.500000  7.500000
Rc and Rl:   5.500000  7.500000

Average number of steps between two list updates:  32.43
Average number of atoms in the shell:     0.01

Average number of steps between two list updates:  32.43
Average number of atoms in the shell:     0.01
Rc and Rl:   5.500000  7.500000
Rc and Rl:   5.500000  7.500000

Rc and Rl:   5.500000  7.500000
Rc and Rl:   5.500000  7.500000

Rc and Rl:   5.500000  7.500000
Rc and Rl:   5.500000  7.500000

Average number of steps between two list updates:  32.43
Average number of atoms in the shell:     0.01

Average number of steps between two list updates:  32.43
Average number of atoms in the shell:     0.01
Rc and Rl:   5.500000  7.500000
Rc and Rl:   5.500000  7.500000

Rc and Rl:   5.500000  7.500000
Rc and Rl:   5.500000  7.500000

Average number of steps between two list updates:  32.43
Average number of atoms in the shell:     0.01

Average number of steps between two list updates:  32.43
Average number of atoms in the shell:     0.01
Rc and Rl:   5.500000  7.500000
Rc and Rl:   5.500000  7.500000

Average number of steps between two list updates:  32.43
Average number of atoms in the shell:     0.01

Average number of steps between two list updates:  32.43
Average number of atoms in the shell:     0.01
Rc and Rl:   5.500000  7.500000
Rc and Rl:   5.500000  7.500000

Rc and Rl:   5.500000  7.500000
Rc and Rl:   5.500000  7.500000

Average number of steps between two list updates:  32.43
Average number of atoms in the shell:     0.01

Average number of steps between two list updates:  32.43
Average number of atoms in the shell:     0.01
Average number of steps between two list updates:  32.43
Average number of atoms in the shell:     0.01

Average number of steps between two list updates:  32.43
Average number of atoms in the shell:     0.01
Average number of steps between two list updates:  32.43
Average number of atoms in the shell:     0.01

Average number of steps between two list updates:  32.43
Average number of atoms in the shell:     0.01
Rc and Rl:   5.500000  7.500000
Rc and Rl:   5.500000  7.500000

Average number of steps between two list updates:  32.43
Average number of atoms in the shell:     0.01

Average number of steps between two list updates:  32.43
Average number of atoms in the shell:     0.01
Rc and Rl:   5.500000  7.500000
Rc and Rl:   5.500000  7.500000

Average number of steps between two list updates:  32.43
Average number of atoms in the shell:     0.01

Average number of steps between two list updates:  32.43
Average number of atoms in the shell:     0.01
Rc and Rl:   5.500000  7.500000
Rc and Rl:   5.500000  7.500000

Average number of steps between two list updates:  32.43
Average number of atoms in the shell:     0.01

Average number of steps between two list updates:  32.43
Average number of atoms in the shell:     0.01
Rc and Rl:   5.500000  7.500000
Rc and Rl:   5.500000  7.500000

Rc and Rl:   5.500000  7.500000
Rc and Rl:   5.500000  7.500000

Average number of steps between two list updates:  32.43
Average number of atoms in the shell:     0.01

Average number of steps between two list updates:  32.43
Average number of atoms in the shell:     0.01
Average number of steps between two list updates:  32.43
Average number of atoms in the shell:     0.01

Average number of steps between two list updates:  32.43
Average number of atoms in the shell:     0.01
Rc and Rl:   5.500000  7.500000
Rc and Rl:   5.500000  7.500000

Average number of steps between two list updates:  32.43
Average number of atoms in the shell:     0.01

Average number of steps between two list updates:  32.43
Average number of atoms in the shell:     0.01
Rc and Rl:   5.500000  7.500000
Rc and Rl:   5.500000  7.500000

Average number of steps between two list updates:  32.43
Average number of atoms in the shell:     0.01

Average number of steps between two list updates:  32.43
Average number of atoms in the shell:     0.01
Rc and Rl:   5.500000  7.500000
Rc and Rl:   5.500000  7.500000

Average number of steps between two list updates:  32.43
Average number of atoms in the shell:     0.01

Average number of steps between two list updates:  32.43
Average number of atoms in the shell:     0.01
Rc and Rl:   5.500000  7.500000
Rc and Rl:   5.500000  7.500000

Rc and Rl:   5.500000  7.500000
Rc and Rl:   5.500000  7.500000

Average number of steps between two list updates:  32.43
Average number of atoms in the shell:     0.01

Average number of steps between two list updates:  32.43
Average number of atoms in the shell:     0.01
Rc and Rl:   5.500000  7.500000
Rc and Rl:   5.500000  7.500000

Average number of steps between two list updates:  32.43
Average number of atoms in the shell:     0.01

Average number of steps between two list updates:  32.43
Average number of atoms in the shell:     0.01
Rc and Rl:   5.500000  7.500000
Rc and Rl:   5.500000  7.500000

Average number of steps between two list updates:  32.43
Average number of atoms in the shell:     0.01

Average number of steps between two list updates:  32.43
Average number of atoms in the shell:     0.01
Rc and Rl:   5.500000  7.500000
Rc and Rl:   5.500000  7.500000

Average number of steps between two list updates:  32.43
Average number of atoms in the shell:     0.01

Average number of steps between two list updates:  32.43
Average number of atoms in the shell:     0.01
Rc and Rl:   5.500000  7.500000
Rc and Rl:   5.500000  7.500000

Average number of steps between two list updates:  32.43
Average number of atoms in the shell:     0.01

Average number of steps between two list updates:  32.43
Average number of atoms in the shell:     0.01
Rc and Rl:   5.500000  7.500000
Rc and Rl:   5.500000  7.500000

Average number of steps between two list updates:  32.43
Average number of atoms in the shell:     0.01

Average number of steps between two list updates:  32.43
Average number of atoms in the shell:     0.01
Rc and Rl:   5.500000  7.500000
Rc and Rl:   5.500000  7.500000

Average number of steps between two list updates:  32.43
Average number of atoms in the shell:     0.01

Average number of steps between two list updates:  32.43
Average number of atoms in the shell:     0.01
Average number of steps between two list updates:  32.43
Average number of atoms in the shell:     0.01

Average number of steps between two list updates:  32.43
Average number of atoms in the shell:     0.01
Rc and Rl:   5.500000  7.500000
Rc and Rl:   5.500000  7.500000

Average number of steps between two list updates:  32.43
Average number of atoms in the shell:     0.01

Average number of steps between two list updates:  32.43
Average number of atoms in the shell:     0.01
Rc and Rl:   5.500000  7.500000
Rc and Rl:   5.500000  7.500000

Average number of steps between two list updates:  32.43
Average number of atoms in the shell:     0.01

Average number of steps between two list updates:  32.43
Average number of atoms in the shell:     0.01
Rc and Rl:   5.500000  7.500000
Rc and Rl:   5.500000  7.500000

Average number of steps between two list updates:  32.43
Average number of atoms in the shell:     0.01

Average number of steps between two list updates:  32.43
Average number of atoms in the shell:     0.01
Average number of steps between two list updates:  32.43
Average number of atoms in the shell:     0.01

Average number of steps between two list updates:  32.43
Average number of atoms in the shell:     0.01
Average number of steps between two list updates:  32.43
Average number of atoms in the shell:     0.01

Average number of steps between two list updates:  32.43
Average number of atoms in the shell:     0.01
Rc and Rl:   5.500000  7.500000
Rc and Rl:   5.500000  7.500000

Average number of steps between two list updates:  32.43
Average number of atoms in the shell:     0.01

Average number of steps between two list updates:  32.43
Average number of atoms in the shell:     0.01
Rc and Rl:   5.500000  7.500000
Rc and Rl:   5.500000  7.500000

Average number of steps between two list updates:  32.43
Average number of atoms in the shell:     0.01

Average number of steps between two list updates:  32.43
Average number of atoms in the shell:     0.01
Rc and Rl:   5.500000  7.500000
Rc and Rl:   5.500000  7.500000

Average number of steps between two list updates:  32.43
Average number of atoms in the shell:     0.01

Average number of steps between two list updates:  32.43
Average number of atoms in the shell:     0.01
Rc and Rl:   5.500000  7.500000
Rc and Rl:   5.500000  7.500000

Average number of steps between two list updates:  32.43
Average number of atoms in the shell:     0.01

Average number of steps between two list updates:  32.43
Average number of atoms in the shell:     0.01
    25000 T=  1518. E= 0.60088160E+04 F= 0.42848581E+04 EK= 0.17240E+04 SP= 0.00E+00 SK= 0.00E+00
Rc and Rl:   5.500000  7.500000

Average number of steps between two list updates:  32.43
Average number of atoms in the shell:     0.01
